       N       E                     dE             d eps       ncg     rms          rms(c)
DAV:   1    -0.608318757151E+03   -0.60832E+03   -0.79224E-02203512   0.175E+00
RMM:   2    -0.608320042583E+03   -0.12854E-02   -0.12854E-02188838   0.215E-01
RMM:   3    -0.608320395226E+03   -0.35264E-03   -0.34610E-03176716   0.243E-01
RMM:   4    -0.608320408454E+03   -0.13227E-04   -0.10157E-04175601   0.280E-02
RMM:   5    -0.608320408989E+03   -0.53536E-06   -0.47056E-06108055   0.106E-02
   1 F= -.60832041E+03 E0= -.60831589E+03  d E =-.135658E-01  mag=    63.4459
