 vasp.5.3.3 18Dez12 (build Jun 09 2013 10:44:31) complex                        
  
 executed on             LinuxIFC date 2018.06.03  10:59:31
 running on   24 total cores
 distrk:  each k-point on   24 cores,    1 groups
 distr:  one band on NCORES_PER_BAND=   6 cores,    4 groups


--------------------------------------------------------------------------------------------------------


 INCAR:
 POTCAR:    PAW_PBE Re 17Jan2003                  
 POTCAR:   PAW_PBE Ni 06Sep2000                   
 POTCAR:    PAW_PBE Re 17Jan2003                  
   VRHFIN =Re: 5p6s5d                                                           
   LEXCH  = PE                                                                  
   EATOM  =   299.6589 eV,   22.0243 Ry                                         
                                                                                
   TITEL  = PAW_PBE Re 17Jan2003                                                
   LULTRA =        F    use ultrasoft PP ?                                      
   IUNSCR =        1    unscreen: 0-lin 1-nonlin 2-no                           
   RPACOR =    2.250    partial core radius                                     
   POMASS =  186.207; ZVAL   =    7.000    mass and valenz                      
   RCORE  =    2.700    outmost cutoff radius                                   
   RWIGS  =    2.710; RWIGS  =    1.434    wigner-seitz radius (au A)           
   ENMAX  =  226.216; ENMIN  =  169.662 eV                                      
   RCLOC  =    2.105    cutoff for local pot                                    
   LCOR   =        T    correct aug charges                                     
   LPAW   =        T    paw PP                                                  
   EAUG   =  370.280                                                            
   DEXC   =    -.079                                                            
   RMAX   =    3.066    core radius for proj-oper                               
   RAUG   =    1.300    factor for augmentation sphere                          
   RDEP   =    2.719    radius for radial grids                                 
   QCUT   =   -4.078; QGAM   =    8.155    optimization parameters              
                                                                                
   Description                                                                  
     l     E      TYP  RCUT    TYP  RCUT                                        
     2   .000     23  2.500                                                     
     2   .000     23  2.500                                                     
     0   .000     23  2.500                                                     
     0   .000     23  2.500                                                     
     1   .000     23  2.700                                                     
     1  2.000     23  2.700                                                     
     3   .000      7   .000                                                     
  local pseudopotential read in
  partial core-charges read in
  atomic valenz-charges read in
  non local Contribution for L=           2  read in
    real space projection operators read in
  non local Contribution for L=           2  read in
    real space projection operators read in
  non local Contribution for L=           0  read in
    real space projection operators read in
  non local Contribution for L=           0  read in
    real space projection operators read in
  non local Contribution for L=           1  read in
    real space projection operators read in
  non local Contribution for L=           1  read in
    real space projection operators read in
    PAW grid and wavefunctions read in
 
   number of l-projection  operators is LMAX  =           6
   number of lm-projection operators is LMMAX =          18
 
 POTCAR:   PAW_PBE Ni 06Sep2000                   
   VRHFIN =Ni:                                                                  
   LEXCH  = PE                                                                  
   EATOM  =  1077.9025 eV,   79.2236 Ry                                         
                                                                                
   TITEL  = PAW_PBE Ni 06Sep2000                                                
   LULTRA =        F    use ultrasoft PP ?                                      
   IUNSCR =        1    unscreen: 0-lin 1-nonlin 2-no                           
   RPACOR =    2.000    partial core radius                                     
   POMASS =   58.690; ZVAL   =   10.000    mass and valenz                      
   RCORE  =    2.300    outmost cutoff radius                                   
   RWIGS  =    2.430; RWIGS  =    1.286    wigner-seitz radius (au A)           
   ENMAX  =  269.533; ENMIN  =  202.150 eV                                      
   RCLOC  =    1.681    cutoff for local pot                                    
   LCOR   =        T    correct aug charges                                     
   LPAW   =        T    paw PP                                                  
   EAUG   =  544.565                                                            
   DEXC   =    -.009                                                            
   RMAX   =    2.808    core radius for proj-oper                               
   RAUG   =    1.300    factor for augmentation sphere                          
   RDEP   =    2.390    radius for radial grids                                 
   QCUT   =   -4.451; QGAM   =    8.902    optimization parameters              
                                                                                
   Description                                                                  
     l     E      TYP  RCUT    TYP  RCUT                                        
     2   .000     23  2.300                                                     
     2   .000     23  2.300                                                     
     0   .000     23  2.300                                                     
     0   .000     23  2.300                                                     
     1  -.200     23  2.300                                                     
     1   .000     23  2.300                                                     
     3   .000      7   .000                                                     
  local pseudopotential read in
  partial core-charges read in
  atomic valenz-charges read in
  non local Contribution for L=           2  read in
    real space projection operators read in
  non local Contribution for L=           2  read in
    real space projection operators read in
  non local Contribution for L=           0  read in
    real space projection operators read in
  non local Contribution for L=           0  read in
    real space projection operators read in
  non local Contribution for L=           1  read in
    real space projection operators read in
  non local Contribution for L=           1  read in
    real space projection operators read in
    PAW grid and wavefunctions read in
 
   number of l-projection  operators is LMAX  =           6
   number of lm-projection operators is LMMAX =          18
 
 Optimization of the real space projectors (new method)

 maximal supplied QI-value         = 13.98
 optimisation between [QCUT,QGAM] = [ 10.49, 20.98] = [ 30.80,123.21] Ry 
 Optimized for a Real-space Cutoff    1.66 Angstroem

   l    n(q)    QCUT    max X(q) W(low)/X(q) W(high)/X(q)  e(spline) 
   2      9    10.488     3.522    0.18E-04    0.41E-05    0.56E-07
   2      9    10.488   325.802    0.24E-03    0.19E-04    0.40E-06
   0     10    10.488    18.886    0.18E-04    0.24E-05    0.20E-07
   0     10    10.488    60.363    0.42E-04    0.26E-04    0.28E-06
   1     10    10.488     8.764    0.80E-05    0.27E-04    0.44E-07
   1     10    10.488    11.184    0.43E-04    0.81E-04    0.15E-06
 Optimization of the real space projectors (new method)

 maximal supplied QI-value         = 16.25
 optimisation between [QCUT,QGAM] = [ 10.40, 20.96] = [ 30.29,123.08] Ry 
 Optimized for a Real-space Cutoff    1.52 Angstroem

   l    n(q)    QCUT    max X(q) W(low)/X(q) W(high)/X(q)  e(spline) 
   2      9    10.401     4.811    0.80E-05    0.29E-04    0.55E-07
   2      9    10.401    15.146    0.74E-04    0.32E-03    0.23E-06
   0     10    10.401    14.357    0.19E-04    0.16E-05    0.59E-08
   0     10    10.401    43.282    0.50E-04    0.54E-04    0.61E-07
   1      9    10.401     5.514    0.86E-05    0.19E-04    0.23E-07
   1      9    10.401     7.697    0.17E-04    0.84E-04    0.13E-06
  PAW_PBE Re 17Jan2003                  :
 energy of atom  1       EATOM= -299.6589
 kinetic energy error for atom=    0.0030 (will be added to EATOM!!)
 PAW_PBE Ni 06Sep2000                   :
 energy of atom  2       EATOM=-1077.9025
 kinetic energy error for atom=    0.0066 (will be added to EATOM!!)
 
 
 POSCAR: Fcc_3x3x3_a3.52_1S                      
  positions in direct lattice
  velocities in cartesian coordinates
 exchange correlation table for  LEXCH =        8
   RHO(1)=    0.500       N(1)  =     2000
   RHO(2)=  100.500       N(2)  =     4000
 


--------------------------------------------------------------------------------------------------------


 ion  position               nearest neighbor table
   1  0.000  0.000  0.000-   2 2.50   3 2.50   4 2.50  11 2.50  12 2.50  26 2.50  28 2.50  74 2.50
                            75 2.50  36 2.50  83 2.50  98 2.50
   2  0.000  0.167  0.167-  15 2.49  40 2.49  23 2.49  48 2.49  49 2.50   4 2.50   1 2.50   3 2.50
                            12 2.50  11 2.50  37 2.50  13 2.50
   3  0.167  0.000  0.167-   6 2.49  40 2.49  30 2.49  64 2.49  41 2.50   4 2.50   1 2.50   2 2.50
                            26 2.50  28 2.50  37 2.50   5 2.50
   4  0.167  0.167  0.000-   6 2.49  15 2.49  78 2.49  87 2.49  17 2.50   3 2.50   1 2.50   2 2.50
                            74 2.50  75 2.50   5 2.50  13 2.50
   5  0.335  0.000  0.000-   7 2.48   8 2.48  32 2.48  79 2.48   6 2.50  78 2.50  30 2.50 102 2.50
                             3 2.50   4 2.50  75 2.50  28 2.50
   6  0.334  0.167  0.167-  19 2.49  44 2.49  53 2.49   8 2.49   7 2.49   4 2.49   3 2.49  15 2.49
                            40 2.49   5 2.50  17 2.50  41 2.50
   7  0.500  0.000  0.167-   5 2.48   9 2.48  41 2.49  45 2.49  44 2.49  68 2.49   6 2.49  10 2.49
                            30 2.49  34 2.49   8 2.50  32 2.50
   8  0.500  0.167  0.000-   5 2.48   9 2.48  17 2.49  21 2.49  19 2.49  91 2.49   6 2.49  10 2.49
                            78 2.49  82 2.49   7 2.50  79 2.50
   9  0.665  0.000  0.000-   7 2.48   8 2.48  32 2.48  79 2.48  10 2.50  34 2.50  82 2.50 106 2.50
                            12 2.50  11 2.50  83 2.50  36 2.50
  10  0.666  0.167  0.167-  19 2.49  44 2.49  57 2.49   8 2.49   7 2.49  12 2.49  11 2.49  48 2.49
                            23 2.49   9 2.50  21 2.50  45 2.50
  11  0.833  0.000  0.167-  10 2.49  34 2.49  48 2.49  72 2.49  45 2.50  12 2.50   2 2.50   1 2.50
                            36 2.50  26 2.50   9 2.50  37 2.50
  12  0.833  0.167  0.000-  10 2.49  82 2.49  23 2.49  95 2.49  21 2.50  11 2.50   1 2.50  83 2.50
                             2 2.50  74 2.50   9 2.50  13 2.50
  13  0.000  0.335  0.000-  14 2.48  16 2.48  24 2.48  86 2.48  15 2.50  23 2.50  87 2.50  95 2.50
                             2 2.50   4 2.50  74 2.50  12 2.50
  14  0.000  0.500  0.167-  13 2.48  25 2.48  49 2.49  61 2.49  52 2.49  60 2.49  15 2.49  27 2.49
                            23 2.49  35 2.49  16 2.50  24 2.50
  15  0.167  0.334  0.167-  18 2.49  52 2.49  53 2.49  16 2.49  14 2.49   4 2.49   2 2.49   6 2.49
                            40 2.49  13 2.50  17 2.50  49 2.50
  16  0.167  0.500  0.000-  13 2.48  25 2.48  17 2.49  29 2.49  18 2.49  90 2.49  15 2.49  27 2.49
                            87 2.49  99 2.49  14 2.50  86 2.50
  17  0.335  0.335  0.000-  20 2.47  19 2.48  18 2.48  90 2.48  91 2.48  16 2.49   8 2.49   4 2.50
                             6 2.50  15 2.50  78 2.50  87 2.50
  18  0.333  0.500  0.167-  17 2.48  29 2.48  15 2.49  27 2.49  52 2.49  56 2.49  53 2.49  65 2.49
                            16 2.49  19 2.49  31 2.49  20 2.49
  19  0.500  0.333  0.167-  17 2.48  21 2.48   6 2.49  10 2.49  44 2.49  56 2.49  53 2.49  57 2.49
                             8 2.49  18 2.49  22 2.49  20 2.49
  20  0.500  0.500  0.000-  17 2.47  21 2.47  29 2.47  33 2.47  19 2.49  18 2.49  31 2.49  22 2.49
                            90 2.49  91 2.49  94 2.49 103 2.49
  21  0.665  0.335  0.000-  20 2.47  22 2.48  19 2.48  94 2.48  91 2.48  24 2.49   8 2.49  12 2.50
                            23 2.50  95 2.50  10 2.50  82 2.50
  22  0.667  0.500  0.167-  21 2.48  33 2.48  23 2.49  35 2.49  60 2.49  56 2.49  57 2.49  69 2.49
                            24 2.49  19 2.49  31 2.49  20 2.49
  23  0.833  0.334  0.167-  22 2.49  60 2.49  57 2.49  24 2.49  14 2.49  12 2.49   2 2.49  10 2.49
                            48 2.49  13 2.50  21 2.50  49 2.50
  24  0.833  0.500  0.000-  13 2.48  25 2.48  21 2.49  33 2.49  22 2.49  94 2.49  23 2.49  35 2.49
                            95 2.49 107 2.49  14 2.50  86 2.50
  25  0.000  0.665  0.000-  14 2.48  16 2.48  24 2.48  86 2.48  27 2.50  35 2.50  99 2.50 107 2.50
                            26 2.50  28 2.50  36 2.50  98 2.50
  26  0.000  0.833  0.167-  27 2.49  35 2.49  64 2.49  72 2.49  61 2.50  28 2.50   3 2.50   1 2.50
                            36 2.50  11 2.50  25 2.50  37 2.50
  27  0.167  0.666  0.167-  18 2.49  52 2.49  65 2.49  16 2.49  14 2.49  26 2.49  28 2.49  64 2.49
                            30 2.49  25 2.50  29 2.50  61 2.50
  28  0.167  0.833  0.000-  27 2.49  99 2.49  30 2.49 102 2.49  29 2.50  26 2.50  98 2.50   1 2.50
                             3 2.50  75 2.50  25 2.50   5 2.50
  29  0.335  0.665  0.000-  20 2.47  31 2.48  18 2.48 103 2.48  90 2.48  32 2.49  16 2.49  28 2.50
                            30 2.50 102 2.50  27 2.50  99 2.50
  30  0.334  0.833  0.167-  31 2.49  68 2.49  65 2.49  32 2.49   7 2.49  28 2.49   3 2.49  27 2.49
                            64 2.49   5 2.50  29 2.50  41 2.50
  31  0.500  0.667  0.167-  29 2.48  33 2.48  30 2.49  34 2.49  68 2.49  56 2.49  65 2.49  69 2.49
                            32 2.49  18 2.49  22 2.49  20 2.49
  32  0.500  0.833  0.000-   5 2.48   9 2.48  29 2.49  33 2.49  31 2.49 103 2.49  30 2.49  34 2.49
                           102 2.49 106 2.49   7 2.50  79 2.50
  33  0.665  0.665  0.000-  20 2.47  22 2.48  31 2.48  94 2.48 103 2.48  24 2.49  32 2.49  36 2.50
                            35 2.50  34 2.50 106 2.50 107 2.50
  34  0.666  0.833  0.167-  31 2.49  68 2.49  69 2.49  32 2.49   7 2.49  36 2.49  11 2.49  35 2.49
                            72 2.49   9 2.50  33 2.50  45 2.50
  35  0.833  0.666  0.167-  22 2.49  60 2.49  69 2.49  24 2.49  14 2.49  36 2.49  26 2.49  34 2.49
                            72 2.49  25 2.50  33 2.50  61 2.50
  36  0.833  0.833  0.000-  34 2.49  35 2.49 106 2.49 107 2.49  33 2.50  26 2.50  11 2.50  98 2.50
                             1 2.50  83 2.50   9 2.50  25 2.50
  37  0.000  0.000  0.335-  38 2.48  39 2.48  47 2.48  62 2.48  40 2.50  48 2.50  64 2.50  72 2.50
                             2 2.50   3 2.50  11 2.50  26 2.50
  38  0.000  0.167  0.500-  37 2.48  73 2.48  49 2.49  85 2.49  51 2.49  59 2.49  40 2.49  76 2.49
                            48 2.49  84 2.49  39 2.50  47 2.50
  39  0.167  0.000  0.500-  37 2.48  73 2.48  41 2.49  77 2.49  42 2.49  66 2.49  40 2.49  76 2.49
                            64 2.49 100 2.49  38 2.50  62 2.50
  40  0.167  0.167  0.334-  42 2.49  51 2.49  53 2.49  39 2.49  38 2.49   3 2.49   2 2.49  15 2.49
                             6 2.49  37 2.50  41 2.50  49 2.50
  41  0.335  0.000  0.335-  43 2.47  42 2.48  44 2.48  66 2.48  68 2.48  39 2.49   7 2.49   3 2.50
                            40 2.50   6 2.50  30 2.50  64 2.50
  42  0.333  0.167  0.500-  41 2.48  77 2.48  40 2.49  76 2.49  51 2.49  55 2.49  53 2.49  89 2.49
                            39 2.49  44 2.49  80 2.49  43 2.49
  43  0.500  0.000  0.500-  41 2.47  45 2.47  77 2.47  81 2.47  44 2.49  42 2.49  80 2.49  46 2.49
                            68 2.49  66 2.49  70 2.49 104 2.49
  44  0.500  0.167  0.333-  41 2.48  45 2.48   6 2.49  10 2.49  19 2.49  55 2.49  53 2.49  57 2.49
                             7 2.49  42 2.49  46 2.49  43 2.49
  45  0.665  0.000  0.335-  43 2.47  46 2.48  44 2.48  70 2.48  68 2.48  47 2.49   7 2.49  11 2.50
                            48 2.50  72 2.50  10 2.50  34 2.50
  46  0.667  0.167  0.500-  45 2.48  81 2.48  48 2.49  84 2.49  59 2.49  55 2.49  57 2.49  93 2.49
                            47 2.49  44 2.49  80 2.49  43 2.49
  47  0.833  0.000  0.500-  37 2.48  73 2.48  45 2.49  81 2.49  46 2.49  70 2.49  48 2.49  84 2.49
                            72 2.49 108 2.49  38 2.50  62 2.50
  48  0.833  0.167  0.334-  46 2.49  59 2.49  57 2.49  47 2.49  38 2.49  11 2.49   2 2.49  10 2.49
                            23 2.49  37 2.50  45 2.50  49 2.50
  49  0.000  0.335  0.335-  50 2.47  51 2.48  52 2.48  59 2.48  60 2.48  38 2.49  14 2.49   2 2.50
                            40 2.50  15 2.50  48 2.50  23 2.50
  50  0.000  0.500  0.500-  49 2.47  61 2.47  85 2.47  97 2.47  52 2.49  51 2.49  88 2.49  63 2.49
                            60 2.49  59 2.49  96 2.49  71 2.49
  51  0.167  0.333  0.500-  49 2.48  85 2.48  40 2.49  76 2.49  42 2.49  54 2.49  53 2.49  89 2.49
                            38 2.49  52 2.49  88 2.49  50 2.49
  52  0.167  0.500  0.333-  49 2.48  61 2.48  15 2.49  27 2.49  18 2.49  54 2.49  53 2.49  65 2.49
                            14 2.49  51 2.49  63 2.49  50 2.49
  53  0.333  0.333  0.333-   6 2.49  15 2.49  40 2.49  54 2.49  55 2.49  56 2.49  44 2.49  51 2.49
                            52 2.49  19 2.49  18 2.49  42 2.49
  54  0.333  0.500  0.500-  51 2.49  52 2.49  63 2.49  88 2.49  53 2.49  65 2.49  89 2.49 101 2.49
                            56 2.49  55 2.49  92 2.49  67 2.49
  55  0.500  0.333  0.500-  42 2.49  44 2.49  46 2.49  80 2.49  53 2.49  57 2.49  89 2.49  93 2.49
                            54 2.49  56 2.49  92 2.49  58 2.49
  56  0.500  0.500  0.333-  18 2.49  19 2.49  22 2.49  31 2.49  53 2.49  57 2.49  65 2.49  69 2.49
                            55 2.49  54 2.49  67 2.49  58 2.49
  57  0.667  0.333  0.333-  23 2.49  48 2.49  10 2.49  58 2.49  56 2.49  55 2.49  60 2.49  59 2.49
                            22 2.49  46 2.49  44 2.49  19 2.49
  58  0.667  0.500  0.500-  59 2.49  60 2.49  71 2.49  96 2.49  57 2.49  93 2.49  69 2.49 105 2.49
                            55 2.49  56 2.49  92 2.49  67 2.49
  59  0.833  0.333  0.500-  49 2.48  85 2.48  48 2.49  84 2.49  46 2.49  58 2.49  57 2.49  93 2.49
                            38 2.49  60 2.49  96 2.49  50 2.49
  60  0.833  0.500  0.333-  49 2.48  61 2.48  23 2.49  35 2.49  22 2.49  58 2.49  57 2.49  69 2.49
                            14 2.49  59 2.49  71 2.49  50 2.49
  61  0.000  0.665  0.335-  50 2.47  63 2.48  52 2.48  71 2.48  60 2.48  62 2.49  14 2.49  26 2.50
                            64 2.50  72 2.50  27 2.50  35 2.50
  62  0.000  0.833  0.500-  37 2.48  73 2.48  61 2.49  97 2.49  63 2.49  71 2.49  64 2.49 100 2.49
                            72 2.49 108 2.49  39 2.50  47 2.50
  63  0.167  0.667  0.500-  61 2.48  97 2.48  64 2.49 100 2.49  66 2.49  54 2.49  65 2.49 101 2.49
                            62 2.49  52 2.49  88 2.49  50 2.49
  64  0.167  0.833  0.334-  63 2.49  66 2.49  65 2.49  62 2.49  39 2.49  26 2.49   3 2.49  27 2.49
                            30 2.49  37 2.50  61 2.50  41 2.50
  65  0.333  0.667  0.333-  30 2.49  64 2.49  27 2.49  67 2.49  56 2.49  54 2.49  68 2.49  66 2.49
                            31 2.49  63 2.49  52 2.49  18 2.49
  66  0.333  0.833  0.500-  41 2.48  77 2.48  64 2.49 100 2.49  63 2.49  67 2.49  65 2.49 101 2.49
                            39 2.49  68 2.49 104 2.49  43 2.49
  67  0.500  0.667  0.500-  66 2.49  68 2.49  70 2.49 104 2.49  65 2.49 101 2.49  69 2.49 105 2.49
                            54 2.49  56 2.49  92 2.49  58 2.49
  68  0.500  0.833  0.333-  41 2.48  45 2.48  30 2.49  34 2.49  31 2.49  67 2.49  65 2.49  69 2.49
                             7 2.49  66 2.49  70 2.49  43 2.49
  69  0.667  0.667  0.333-  72 2.49  35 2.49  34 2.49  67 2.49  58 2.49  56 2.49  71 2.49  70 2.49
                            68 2.49  60 2.49  22 2.49  31 2.49
  70  0.667  0.833  0.500-  45 2.48  81 2.48  72 2.49 108 2.49  71 2.49  67 2.49  69 2.49 105 2.49
                            47 2.49  68 2.49 104 2.49  43 2.49
  71  0.833  0.667  0.500-  61 2.48  97 2.48  72 2.49 108 2.49  70 2.49  58 2.49  69 2.49 105 2.49
                            62 2.49  60 2.49  96 2.49  50 2.49
  72  0.833  0.833  0.334-  70 2.49  71 2.49  69 2.49  62 2.49  47 2.49  26 2.49  11 2.49  35 2.49
                            34 2.49  37 2.50  45 2.50  61 2.50
  73  0.000  0.000  0.665-  38 2.48  39 2.48  47 2.48  62 2.48  76 2.50  84 2.50 100 2.50 108 2.50
                            74 2.50  75 2.50  83 2.50  98 2.50
  74  0.000  0.167  0.833-  76 2.49  84 2.49  87 2.49  95 2.49  85 2.50  75 2.50   4 2.50  83 2.50
                             1 2.50  12 2.50  73 2.50  13 2.50
  75  0.167  0.000  0.833-  76 2.49 100 2.49  78 2.49 102 2.49  77 2.50  74 2.50  98 2.50   1 2.50
                             4 2.50  28 2.50  73 2.50   5 2.50
  76  0.167  0.167  0.666-  42 2.49  51 2.49  89 2.49  39 2.49  38 2.49  75 2.49  74 2.49  87 2.49
                            78 2.49  73 2.50  77 2.50  85 2.50
  77  0.335  0.000  0.665-  43 2.47  80 2.48  42 2.48 104 2.48  66 2.48  79 2.49  39 2.49  75 2.50
                            78 2.50 102 2.50  76 2.50 100 2.50
  78  0.334  0.167  0.833-  80 2.49  91 2.49  89 2.49  79 2.49   8 2.49  75 2.49   4 2.49  76 2.49
                            87 2.49   5 2.50  77 2.50  17 2.50
  79  0.500  0.000  0.833-   5 2.48   9 2.48  77 2.49  81 2.49  80 2.49 104 2.49  78 2.49  82 2.49
                           102 2.49 106 2.49   8 2.50  32 2.50
  80  0.500  0.167  0.667-  77 2.48  81 2.48  78 2.49  82 2.49  91 2.49  55 2.49  89 2.49  93 2.49
                            79 2.49  42 2.49  46 2.49  43 2.49
  81  0.665  0.000  0.665-  43 2.47  46 2.48  80 2.48 104 2.48  70 2.48  47 2.49  79 2.49  83 2.50
                            84 2.50  82 2.50 106 2.50 108 2.50
  82  0.666  0.167  0.833-  80 2.49  91 2.49  93 2.49  79 2.49   8 2.49  83 2.49  12 2.49  84 2.49
                            95 2.49   9 2.50  81 2.50  21 2.50
  83  0.833  0.000  0.833-  82 2.49  84 2.49 108 2.49 106 2.49  81 2.50  74 2.50  12 2.50  98 2.50
                             1 2.50  36 2.50  73 2.50   9 2.50
  84  0.833  0.167  0.666-  46 2.49  59 2.49  93 2.49  47 2.49  38 2.49  83 2.49  74 2.49  82 2.49
                            95 2.49  73 2.50  81 2.50  85 2.50
  85  0.000  0.335  0.665-  50 2.47  88 2.48  51 2.48  96 2.48  59 2.48  86 2.49  38 2.49  74 2.50
                            87 2.50  95 2.50  76 2.50  84 2.50
  86  0.000  0.500  0.833-  13 2.48  25 2.48  85 2.49  97 2.49  88 2.49  96 2.49  87 2.49  99 2.49
                            95 2.49 107 2.49  16 2.50  24 2.50
  87  0.167  0.334  0.833-  88 2.49  90 2.49  89 2.49  86 2.49  16 2.49  74 2.49   4 2.49  76 2.49
                            78 2.49  13 2.50  85 2.50  17 2.50
  88  0.167  0.500  0.667-  85 2.48  97 2.48  87 2.49  99 2.49  90 2.49  54 2.49  89 2.49 101 2.49
                            86 2.49  51 2.49  63 2.49  50 2.49
  89  0.333  0.333  0.667-  78 2.49  87 2.49  76 2.49  92 2.49  54 2.49  55 2.49  91 2.49  90 2.49
                            88 2.49  80 2.49  42 2.49  51 2.49
  90  0.333  0.500  0.833-  17 2.48  29 2.48  87 2.49  99 2.49  88 2.49  92 2.49  89 2.49 101 2.49
                            16 2.49  91 2.49 103 2.49  20 2.49
  91  0.500  0.333  0.833-  17 2.48  21 2.48  78 2.49  82 2.49  80 2.49  92 2.49  89 2.49  93 2.49
                             8 2.49  90 2.49  94 2.49  20 2.49
  92  0.500  0.500  0.667-  90 2.49  91 2.49  94 2.49 103 2.49  89 2.49 101 2.49  93 2.49 105 2.49
                            54 2.49  55 2.49  58 2.49  67 2.49
  93  0.667  0.333  0.667-  95 2.49  84 2.49  82 2.49  92 2.49  58 2.49  55 2.49  96 2.49  94 2.49
                            59 2.49  91 2.49  80 2.49  46 2.49
  94  0.667  0.500  0.833-  21 2.48  33 2.48  95 2.49 107 2.49  96 2.49  92 2.49  93 2.49 105 2.49
                            24 2.49  91 2.49 103 2.49  20 2.49
  95  0.833  0.334  0.833-  94 2.49  96 2.49  93 2.49  24 2.49  86 2.49  12 2.49  74 2.49  82 2.49
                            84 2.49  13 2.50  21 2.50  85 2.50
  96  0.833  0.500  0.667-  85 2.48  97 2.48  95 2.49 107 2.49  94 2.49  58 2.49  93 2.49 105 2.49
                            86 2.49  59 2.49  71 2.49  50 2.49
  97  0.000  0.665  0.665-  50 2.47  63 2.48  88 2.48  96 2.48  71 2.48  62 2.49  86 2.49  98 2.50
                            99 2.50 100 2.50 107 2.50 108 2.50
  98  0.000  0.833  0.833-  99 2.49 100 2.49 108 2.49 107 2.49  97 2.50  75 2.50  28 2.50  83 2.50
                            36 2.50   1 2.50  73 2.50  25 2.50
  99  0.167  0.666  0.833-  88 2.49  90 2.49 101 2.49  86 2.49  16 2.49  98 2.49  28 2.49 100 2.49
                           102 2.49  25 2.50  97 2.50  29 2.50
 100  0.167  0.833  0.666-  63 2.49  66 2.49 101 2.49  62 2.49  39 2.49  98 2.49  75 2.49  99 2.49
                           102 2.49  73 2.50  97 2.50  77 2.50
 101  0.333  0.667  0.667- 102 2.49 100 2.49  99 2.49  92 2.49  67 2.49  54 2.49 104 2.49 103 2.49
                            66 2.49  90 2.49  88 2.49  63 2.49
 102  0.334  0.833  0.833- 103 2.49 104 2.49 101 2.49  32 2.49  79 2.49  28 2.49  75 2.49 100 2.49
                            99 2.49   5 2.50  29 2.50  77 2.50
 103  0.500  0.667  0.833-  29 2.48  33 2.48 102 2.49 106 2.49 104 2.49  92 2.49 101 2.49 105 2.49
                            32 2.49  90 2.49  94 2.49  20 2.49
 104  0.500  0.833  0.667-  77 2.48  81 2.48 102 2.49 106 2.49 103 2.49  67 2.49 101 2.49 105 2.49
                            79 2.49  66 2.49  70 2.49  43 2.49
 105  0.667  0.667  0.667- 106 2.49 107 2.49 108 2.49  58 2.49  67 2.49  92 2.49  96 2.49 103 2.49
                           104 2.49  71 2.49  70 2.49  94 2.49
 106  0.666  0.833  0.833- 103 2.49 104 2.49 105 2.49  79 2.49  32 2.49  36 2.49  83 2.49 107 2.49
                           108 2.49   9 2.50  33 2.50  81 2.50
 107  0.833  0.666  0.833-  94 2.49  96 2.49 105 2.49  86 2.49  24 2.49  36 2.49  98 2.49 106 2.49
                           108 2.49  25 2.50  33 2.50  97 2.50
 108  0.833  0.833  0.666-  70 2.49  71 2.49 105 2.49  62 2.49  47 2.49  98 2.49  83 2.49 106 2.49
                           107 2.49  73 2.50  81 2.50  97 2.50
 
  LATTYP: Found a simple cubic cell.
 ALAT       =    10.5728271755
  
  Lattice vectors:
  
 A1 = (  10.5728271755,   0.0000000000,   0.0000000000)
 A2 = (   0.0000000000,  10.5728271755,   0.0000000000)
 A3 = (   0.0000000000,   0.0000000000,  10.5728271755)


Analysis of symmetry for initial positions (statically):
=====================================================================
 Subroutine PRICEL returns:
 Original cell was already a primitive cell.
 

 Routine SETGRP: Setting up the symmetry group for a 
 simple cubic supercell.


 Subroutine GETGRP returns: Found 48 space group operations
 (whereof 48 operations were pure point group operations)
 out of a pool of 48 trial point group operations.


The static configuration has the point symmetry O_h .


Analysis of symmetry for dynamics (positions and initial velocities):
=====================================================================
 Subroutine PRICEL returns:
 Original cell was already a primitive cell.
 

 Routine SETGRP: Setting up the symmetry group for a 
 simple cubic supercell.


 Subroutine GETGRP returns: Found 48 space group operations
 (whereof 48 operations were pure point group operations)
 out of a pool of 48 trial point group operations.


The dynamic configuration has the point symmetry O_h .


Analysis of magnetic symmetry:
=====================================================================

 Subroutine MAGSYM returns: Found 48 space group operations
 (whereof 48 operations were pure point group operations)
 out of a pool of 48 trial space group operations
 (whereof 48 operations were pure point group operations)
 and found also     1 'primitive' translations


The magnetic configuration has the point symmetry O_h .


 irot  :   1
 --------------------------------------------------------------------
 isymop:   1   0   0
           0   1   0
           0   0   1

 gtrans:     0.0000000     0.0000000     0.0000000

 ptrans:     0.0000000     0.0000000     0.0000000
 rotmap:
 (   1->   1)  (   2->   2)  (   3->   3)  (   4->   4)  (   5->   5) 
 (   6->   6)  (   7->   7)  (   8->   8)  (   9->   9)  (  10->  10) 
 (  11->  11)  (  12->  12)  (  13->  13)  (  14->  14)  (  15->  15) 
 (  16->  16)  (  17->  17)  (  18->  18)  (  19->  19)  (  20->  20) 
 (  21->  21)  (  22->  22)  (  23->  23)  (  24->  24)  (  25->  25) 
 (  26->  26)  (  27->  27)  (  28->  28)  (  29->  29)  (  30->  30) 
 (  31->  31)  (  32->  32)  (  33->  33)  (  34->  34)  (  35->  35) 
 (  36->  36)  (  37->  37)  (  38->  38)  (  39->  39)  (  40->  40) 
 (  41->  41)  (  42->  42)  (  43->  43)  (  44->  44)  (  45->  45) 
 (  46->  46)  (  47->  47)  (  48->  48)  (  49->  49)  (  50->  50) 
 (  51->  51)  (  52->  52)  (  53->  53)  (  54->  54)  (  55->  55) 
 (  56->  56)  (  57->  57)  (  58->  58)  (  59->  59)  (  60->  60) 
 (  61->  61)  (  62->  62)  (  63->  63)  (  64->  64)  (  65->  65) 
 (  66->  66)  (  67->  67)  (  68->  68)  (  69->  69)  (  70->  70) 
 (  71->  71)  (  72->  72)  (  73->  73)  (  74->  74)  (  75->  75) 
 (  76->  76)  (  77->  77)  (  78->  78)  (  79->  79)  (  80->  80) 
 (  81->  81)  (  82->  82)  (  83->  83)  (  84->  84)  (  85->  85) 
 (  86->  86)  (  87->  87)  (  88->  88)  (  89->  89)  (  90->  90) 
 (  91->  91)  (  92->  92)  (  93->  93)  (  94->  94)  (  95->  95) 
 (  96->  96)  (  97->  97)  (  98->  98)  (  99->  99)  ( 100-> 100) 
 ( 101-> 101)  ( 102-> 102)  ( 103-> 103)  ( 104-> 104)  ( 105-> 105) 
 ( 106-> 106)  ( 107-> 107)  ( 108-> 108) 


 irot  :   2
 --------------------------------------------------------------------
 isymop:  -1   0   0
           0  -1   0
           0   0  -1

 gtrans:     0.0000000     0.0000000     0.0000000

 ptrans:     0.0000000     0.0000000     0.0000000
 rotmap:
 (   1->   1)  (   2->  98)  (   3->  83)  (   4->  36)  (   5->   9) 
 (   6-> 106)  (   7->  79)  (   8->  32)  (   9->   5)  (  10-> 102) 
 (  11->  75)  (  12->  28)  (  13->  25)  (  14->  86)  (  15-> 107) 
 (  16->  24)  (  17->  33)  (  18->  94)  (  19-> 103)  (  20->  20) 
 (  21->  29)  (  22->  90)  (  23->  99)  (  24->  16)  (  25->  13) 
 (  26->  74)  (  27->  95)  (  28->  12)  (  29->  21)  (  30->  82) 
 (  31->  91)  (  32->   8)  (  33->  17)  (  34->  78)  (  35->  87) 
 (  36->   4)  (  37->  73)  (  38->  62)  (  39->  47)  (  40-> 108) 
 (  41->  81)  (  42->  70)  (  43->  43)  (  44-> 104)  (  45->  77) 
 (  46->  66)  (  47->  39)  (  48-> 100)  (  49->  97)  (  50->  50) 
 (  51->  71)  (  52->  96)  (  53-> 105)  (  54->  58)  (  55->  67) 
 (  56->  92)  (  57-> 101)  (  58->  54)  (  59->  63)  (  60->  88) 
 (  61->  85)  (  62->  38)  (  63->  59)  (  64->  84)  (  65->  93) 
 (  66->  46)  (  67->  55)  (  68->  80)  (  69->  89)  (  70->  42) 
 (  71->  51)  (  72->  76)  (  73->  37)  (  74->  26)  (  75->  11) 
 (  76->  72)  (  77->  45)  (  78->  34)  (  79->   7)  (  80->  68) 
 (  81->  41)  (  82->  30)  (  83->   3)  (  84->  64)  (  85->  61) 
 (  86->  14)  (  87->  35)  (  88->  60)  (  89->  69)  (  90->  22) 
 (  91->  31)  (  92->  56)  (  93->  65)  (  94->  18)  (  95->  27) 
 (  96->  52)  (  97->  49)  (  98->   2)  (  99->  23)  ( 100->  48) 
 ( 101->  57)  ( 102->  10)  ( 103->  19)  ( 104->  44)  ( 105->  53) 
 ( 106->   6)  ( 107->  15)  ( 108->  40) 


 irot  :   3
 --------------------------------------------------------------------
 isymop:   0   0   1
           1   0   0
           0   1   0

 gtrans:     0.0000000     0.0000000     0.0000000

 ptrans:     0.0000000     0.0000000     0.0000000
 rotmap:
 (   1->   1)  (   2->   3)  (   3->   4)  (   4->   2)  (   5->  13) 
 (   6->  15)  (   7->  16)  (   8->  14)  (   9->  25)  (  10->  27) 
 (  11->  28)  (  12->  26)  (  13->  37)  (  14->  39)  (  15->  40) 
 (  16->  38)  (  17->  49)  (  18->  51)  (  19->  52)  (  20->  50) 
 (  21->  61)  (  22->  63)  (  23->  64)  (  24->  62)  (  25->  73) 
 (  26->  75)  (  27->  76)  (  28->  74)  (  29->  85)  (  30->  87) 
 (  31->  88)  (  32->  86)  (  33->  97)  (  34->  99)  (  35-> 100) 
 (  36->  98)  (  37->   5)  (  38->   7)  (  39->   8)  (  40->   6) 
 (  41->  17)  (  42->  19)  (  43->  20)  (  44->  18)  (  45->  29) 
 (  46->  31)  (  47->  32)  (  48->  30)  (  49->  41)  (  50->  43) 
 (  51->  44)  (  52->  42)  (  53->  53)  (  54->  55)  (  55->  56) 
 (  56->  54)  (  57->  65)  (  58->  67)  (  59->  68)  (  60->  66) 
 (  61->  77)  (  62->  79)  (  63->  80)  (  64->  78)  (  65->  89) 
 (  66->  91)  (  67->  92)  (  68->  90)  (  69-> 101)  (  70-> 103) 
 (  71-> 104)  (  72-> 102)  (  73->   9)  (  74->  11)  (  75->  12) 
 (  76->  10)  (  77->  21)  (  78->  23)  (  79->  24)  (  80->  22) 
 (  81->  33)  (  82->  35)  (  83->  36)  (  84->  34)  (  85->  45) 
 (  86->  47)  (  87->  48)  (  88->  46)  (  89->  57)  (  90->  59) 
 (  91->  60)  (  92->  58)  (  93->  69)  (  94->  71)  (  95->  72) 
 (  96->  70)  (  97->  81)  (  98->  83)  (  99->  84)  ( 100->  82) 
 ( 101->  93)  ( 102->  95)  ( 103->  96)  ( 104->  94)  ( 105-> 105) 
 ( 106-> 107)  ( 107-> 108)  ( 108-> 106) 


 irot  :   4
 --------------------------------------------------------------------
 isymop:   0   0  -1
          -1   0   0
           0  -1   0

 gtrans:     0.0000000     0.0000000     0.0000000

 ptrans:     0.0000000     0.0000000     0.0000000
 rotmap:
 (   1->   1)  (   2->  83)  (   3->  36)  (   4->  98)  (   5->  25) 
 (   6-> 107)  (   7->  24)  (   8->  86)  (   9->  13)  (  10->  95) 
 (  11->  12)  (  12->  74)  (  13->  73)  (  14->  47)  (  15-> 108) 
 (  16->  62)  (  17->  97)  (  18->  71)  (  19->  96)  (  20->  50) 
 (  21->  85)  (  22->  59)  (  23->  84)  (  24->  38)  (  25->  37) 
 (  26->  11)  (  27->  72)  (  28->  26)  (  29->  61)  (  30->  35) 
 (  31->  60)  (  32->  14)  (  33->  49)  (  34->  23)  (  35->  48) 
 (  36->   2)  (  37->   9)  (  38->  79)  (  39->  32)  (  40-> 106) 
 (  41->  33)  (  42-> 103)  (  43->  20)  (  44->  94)  (  45->  21) 
 (  46->  91)  (  47->   8)  (  48->  82)  (  49->  81)  (  50->  43) 
 (  51-> 104)  (  52->  70)  (  53-> 105)  (  54->  67)  (  55->  92) 
 (  56->  58)  (  57->  93)  (  58->  55)  (  59->  80)  (  60->  46) 
 (  61->  45)  (  62->   7)  (  63->  68)  (  64->  34)  (  65->  69) 
 (  66->  31)  (  67->  56)  (  68->  22)  (  69->  57)  (  70->  19) 
 (  71->  44)  (  72->  10)  (  73->   5)  (  74->  75)  (  75->  28) 
 (  76-> 102)  (  77->  29)  (  78->  99)  (  79->  16)  (  80->  90) 
 (  81->  17)  (  82->  87)  (  83->   4)  (  84->  78)  (  85->  77) 
 (  86->  39)  (  87-> 100)  (  88->  66)  (  89-> 101)  (  90->  63) 
 (  91->  88)  (  92->  54)  (  93->  89)  (  94->  51)  (  95->  76) 
 (  96->  42)  (  97->  41)  (  98->   3)  (  99->  64)  ( 100->  30) 
 ( 101->  65)  ( 102->  27)  ( 103->  52)  ( 104->  18)  ( 105->  53) 
 ( 106->  15)  ( 107->  40)  ( 108->   6) 


 irot  :   5
 --------------------------------------------------------------------
 isymop:   0   1   0
           0   0   1
           1   0   0

 gtrans:     0.0000000     0.0000000     0.0000000

 ptrans:     0.0000000     0.0000000     0.0000000
 rotmap:
 (   1->   1)  (   2->   4)  (   3->   2)  (   4->   3)  (   5->  37) 
 (   6->  40)  (   7->  38)  (   8->  39)  (   9->  73)  (  10->  76) 
 (  11->  74)  (  12->  75)  (  13->   5)  (  14->   8)  (  15->   6) 
 (  16->   7)  (  17->  41)  (  18->  44)  (  19->  42)  (  20->  43) 
 (  21->  77)  (  22->  80)  (  23->  78)  (  24->  79)  (  25->   9) 
 (  26->  12)  (  27->  10)  (  28->  11)  (  29->  45)  (  30->  48) 
 (  31->  46)  (  32->  47)  (  33->  81)  (  34->  84)  (  35->  82) 
 (  36->  83)  (  37->  13)  (  38->  16)  (  39->  14)  (  40->  15) 
 (  41->  49)  (  42->  52)  (  43->  50)  (  44->  51)  (  45->  85) 
 (  46->  88)  (  47->  86)  (  48->  87)  (  49->  17)  (  50->  20) 
 (  51->  18)  (  52->  19)  (  53->  53)  (  54->  56)  (  55->  54) 
 (  56->  55)  (  57->  89)  (  58->  92)  (  59->  90)  (  60->  91) 
 (  61->  21)  (  62->  24)  (  63->  22)  (  64->  23)  (  65->  57) 
 (  66->  60)  (  67->  58)  (  68->  59)  (  69->  93)  (  70->  96) 
 (  71->  94)  (  72->  95)  (  73->  25)  (  74->  28)  (  75->  26) 
 (  76->  27)  (  77->  61)  (  78->  64)  (  79->  62)  (  80->  63) 
 (  81->  97)  (  82-> 100)  (  83->  98)  (  84->  99)  (  85->  29) 
 (  86->  32)  (  87->  30)  (  88->  31)  (  89->  65)  (  90->  68) 
 (  91->  66)  (  92->  67)  (  93-> 101)  (  94-> 104)  (  95-> 102) 
 (  96-> 103)  (  97->  33)  (  98->  36)  (  99->  34)  ( 100->  35) 
 ( 101->  69)  ( 102->  72)  ( 103->  70)  ( 104->  71)  ( 105-> 105) 
 ( 106-> 108)  ( 107-> 106)  ( 108-> 107) 


 irot  :   6
 --------------------------------------------------------------------
 isymop:   0  -1   0
           0   0  -1
          -1   0   0

 gtrans:     0.0000000     0.0000000     0.0000000

 ptrans:     0.0000000     0.0000000     0.0000000
 rotmap:
 (   1->   1)  (   2->  36)  (   3->  98)  (   4->  83)  (   5->  73) 
 (   6-> 108)  (   7->  62)  (   8->  47)  (   9->  37)  (  10->  72) 
 (  11->  26)  (  12->  11)  (  13->   9)  (  14->  32)  (  15-> 106) 
 (  16->  79)  (  17->  81)  (  18-> 104)  (  19->  70)  (  20->  43) 
 (  21->  45)  (  22->  68)  (  23->  34)  (  24->   7)  (  25->   5) 
 (  26->  28)  (  27-> 102)  (  28->  75)  (  29->  77)  (  30-> 100) 
 (  31->  66)  (  32->  39)  (  33->  41)  (  34->  64)  (  35->  30) 
 (  36->   3)  (  37->  25)  (  38->  24)  (  39->  86)  (  40-> 107) 
 (  41->  97)  (  42->  96)  (  43->  50)  (  44->  71)  (  45->  61) 
 (  46->  60)  (  47->  14)  (  48->  35)  (  49->  33)  (  50->  20) 
 (  51->  94)  (  52-> 103)  (  53-> 105)  (  54->  92)  (  55->  58) 
 (  56->  67)  (  57->  69)  (  58->  56)  (  59->  22)  (  60->  31) 
 (  61->  29)  (  62->  16)  (  63->  90)  (  64->  99)  (  65-> 101) 
 (  66->  88)  (  67->  54)  (  68->  63)  (  69->  65)  (  70->  52) 
 (  71->  18)  (  72->  27)  (  73->  13)  (  74->  12)  (  75->  74) 
 (  76->  95)  (  77->  85)  (  78->  84)  (  79->  38)  (  80->  59) 
 (  81->  49)  (  82->  48)  (  83->   2)  (  84->  23)  (  85->  21) 
 (  86->   8)  (  87->  82)  (  88->  91)  (  89->  93)  (  90->  80) 
 (  91->  46)  (  92->  55)  (  93->  57)  (  94->  44)  (  95->  10) 
 (  96->  19)  (  97->  17)  (  98->   4)  (  99->  78)  ( 100->  87) 
 ( 101->  89)  ( 102->  76)  ( 103->  42)  ( 104->  51)  ( 105->  53) 
 ( 106->  40)  ( 107->   6)  ( 108->  15) 


 irot  :   7
 --------------------------------------------------------------------
 isymop:   0  -1   0
           1   0   0
           0   0   1

 gtrans:     0.0000000     0.0000000     0.0000000

 ptrans:     0.0000000     0.0000000     0.0000000
 rotmap:
 (   1->   1)  (   2->  11)  (   3->   2)  (   4->  12)  (   5->  13) 
 (   6->  23)  (   7->  14)  (   8->  24)  (   9->  25)  (  10->  35) 
 (  11->  26)  (  12->  36)  (  13->   9)  (  14->   7)  (  15->  10) 
 (  16->   8)  (  17->  21)  (  18->  19)  (  19->  22)  (  20->  20) 
 (  21->  33)  (  22->  31)  (  23->  34)  (  24->  32)  (  25->   5) 
 (  26->   3)  (  27->   6)  (  28->   4)  (  29->  17)  (  30->  15) 
 (  31->  18)  (  32->  16)  (  33->  29)  (  34->  27)  (  35->  30) 
 (  36->  28)  (  37->  37)  (  38->  47)  (  39->  38)  (  40->  48) 
 (  41->  49)  (  42->  59)  (  43->  50)  (  44->  60)  (  45->  61) 
 (  46->  71)  (  47->  62)  (  48->  72)  (  49->  45)  (  50->  43) 
 (  51->  46)  (  52->  44)  (  53->  57)  (  54->  55)  (  55->  58) 
 (  56->  56)  (  57->  69)  (  58->  67)  (  59->  70)  (  60->  68) 
 (  61->  41)  (  62->  39)  (  63->  42)  (  64->  40)  (  65->  53) 
 (  66->  51)  (  67->  54)  (  68->  52)  (  69->  65)  (  70->  63) 
 (  71->  66)  (  72->  64)  (  73->  73)  (  74->  83)  (  75->  74) 
 (  76->  84)  (  77->  85)  (  78->  95)  (  79->  86)  (  80->  96) 
 (  81->  97)  (  82-> 107)  (  83->  98)  (  84-> 108)  (  85->  81) 
 (  86->  79)  (  87->  82)  (  88->  80)  (  89->  93)  (  90->  91) 
 (  91->  94)  (  92->  92)  (  93-> 105)  (  94-> 103)  (  95-> 106) 
 (  96-> 104)  (  97->  77)  (  98->  75)  (  99->  78)  ( 100->  76) 
 ( 101->  89)  ( 102->  87)  ( 103->  90)  ( 104->  88)  ( 105-> 101) 
 ( 106->  99)  ( 107-> 102)  ( 108-> 100) 


 irot  :   8
 --------------------------------------------------------------------
 isymop:   0   1   0
          -1   0   0
           0   0  -1

 gtrans:     0.0000000     0.0000000     0.0000000

 ptrans:     0.0000000     0.0000000     0.0000000
 rotmap:
 (   1->   1)  (   2->  75)  (   3->  98)  (   4->  28)  (   5->  25) 
 (   6->  99)  (   7->  86)  (   8->  16)  (   9->  13)  (  10->  87) 
 (  11->  74)  (  12->   4)  (  13->   5)  (  14->  79)  (  15-> 102) 
 (  16->  32)  (  17->  29)  (  18-> 103)  (  19->  90)  (  20->  20) 
 (  21->  17)  (  22->  91)  (  23->  78)  (  24->   8)  (  25->   9) 
 (  26->  83)  (  27-> 106)  (  28->  36)  (  29->  33)  (  30-> 107) 
 (  31->  94)  (  32->  24)  (  33->  21)  (  34->  95)  (  35->  82) 
 (  36->  12)  (  37->  73)  (  38->  39)  (  39->  62)  (  40-> 100) 
 (  41->  97)  (  42->  63)  (  43->  50)  (  44->  88)  (  45->  85) 
 (  46->  51)  (  47->  38)  (  48->  76)  (  49->  77)  (  50->  43) 
 (  51->  66)  (  52-> 104)  (  53-> 101)  (  54->  67)  (  55->  54) 
 (  56->  92)  (  57->  89)  (  58->  55)  (  59->  42)  (  60->  80) 
 (  61->  81)  (  62->  47)  (  63->  70)  (  64-> 108)  (  65-> 105) 
 (  66->  71)  (  67->  58)  (  68->  96)  (  69->  93)  (  70->  59) 
 (  71->  46)  (  72->  84)  (  73->  37)  (  74->   3)  (  75->  26) 
 (  76->  64)  (  77->  61)  (  78->  27)  (  79->  14)  (  80->  52) 
 (  81->  49)  (  82->  15)  (  83->   2)  (  84->  40)  (  85->  41) 
 (  86->   7)  (  87->  30)  (  88->  68)  (  89->  65)  (  90->  31) 
 (  91->  18)  (  92->  56)  (  93->  53)  (  94->  19)  (  95->   6) 
 (  96->  44)  (  97->  45)  (  98->  11)  (  99->  34)  ( 100->  72) 
 ( 101->  69)  ( 102->  35)  ( 103->  22)  ( 104->  60)  ( 105->  57) 
 ( 106->  23)  ( 107->  10)  ( 108->  48) 


 irot  :   9
 --------------------------------------------------------------------
 isymop:  -1   0   0
           0   0   1
           0   1   0

 gtrans:     0.0000000     0.0000000     0.0000000

 ptrans:     0.0000000     0.0000000     0.0000000
 rotmap:
 (   1->   1)  (   2->   2)  (   3->  12)  (   4->  11)  (   5->   9) 
 (   6->  10)  (   7->   8)  (   8->   7)  (   9->   5)  (  10->   6) 
 (  11->   4)  (  12->   3)  (  13->  37)  (  14->  38)  (  15->  48) 
 (  16->  47)  (  17->  45)  (  18->  46)  (  19->  44)  (  20->  43) 
 (  21->  41)  (  22->  42)  (  23->  40)  (  24->  39)  (  25->  73) 
 (  26->  74)  (  27->  84)  (  28->  83)  (  29->  81)  (  30->  82) 
 (  31->  80)  (  32->  79)  (  33->  77)  (  34->  78)  (  35->  76) 
 (  36->  75)  (  37->  13)  (  38->  14)  (  39->  24)  (  40->  23) 
 (  41->  21)  (  42->  22)  (  43->  20)  (  44->  19)  (  45->  17) 
 (  46->  18)  (  47->  16)  (  48->  15)  (  49->  49)  (  50->  50) 
 (  51->  60)  (  52->  59)  (  53->  57)  (  54->  58)  (  55->  56) 
 (  56->  55)  (  57->  53)  (  58->  54)  (  59->  52)  (  60->  51) 
 (  61->  85)  (  62->  86)  (  63->  96)  (  64->  95)  (  65->  93) 
 (  66->  94)  (  67->  92)  (  68->  91)  (  69->  89)  (  70->  90) 
 (  71->  88)  (  72->  87)  (  73->  25)  (  74->  26)  (  75->  36) 
 (  76->  35)  (  77->  33)  (  78->  34)  (  79->  32)  (  80->  31) 
 (  81->  29)  (  82->  30)  (  83->  28)  (  84->  27)  (  85->  61) 
 (  86->  62)  (  87->  72)  (  88->  71)  (  89->  69)  (  90->  70) 
 (  91->  68)  (  92->  67)  (  93->  65)  (  94->  66)  (  95->  64) 
 (  96->  63)  (  97->  97)  (  98->  98)  (  99-> 108)  ( 100-> 107) 
 ( 101-> 105)  ( 102-> 106)  ( 103-> 104)  ( 104-> 103)  ( 105-> 101) 
 ( 106-> 102)  ( 107-> 100)  ( 108->  99) 


 irot  :  10
 --------------------------------------------------------------------
 isymop:   1   0   0
           0   0  -1
           0  -1   0

 gtrans:     0.0000000     0.0000000     0.0000000

 ptrans:     0.0000000     0.0000000     0.0000000
 rotmap:
 (   1->   1)  (   2->  98)  (   3->  28)  (   4->  75)  (   5->   5) 
 (   6-> 102)  (   7->  32)  (   8->  79)  (   9->   9)  (  10-> 106) 
 (  11->  36)  (  12->  83)  (  13->  73)  (  14->  62)  (  15-> 100) 
 (  16->  39)  (  17->  77)  (  18->  66)  (  19-> 104)  (  20->  43) 
 (  21->  81)  (  22->  70)  (  23-> 108)  (  24->  47)  (  25->  37) 
 (  26->  26)  (  27->  64)  (  28->   3)  (  29->  41)  (  30->  30) 
 (  31->  68)  (  32->   7)  (  33->  45)  (  34->  34)  (  35->  72) 
 (  36->  11)  (  37->  25)  (  38->  86)  (  39->  16)  (  40->  99) 
 (  41->  29)  (  42->  90)  (  43->  20)  (  44-> 103)  (  45->  33) 
 (  46->  94)  (  47->  24)  (  48-> 107)  (  49->  97)  (  50->  50) 
 (  51->  88)  (  52->  63)  (  53-> 101)  (  54->  54)  (  55->  92) 
 (  56->  67)  (  57-> 105)  (  58->  58)  (  59->  96)  (  60->  71) 
 (  61->  61)  (  62->  14)  (  63->  52)  (  64->  27)  (  65->  65) 
 (  66->  18)  (  67->  56)  (  68->  31)  (  69->  69)  (  70->  22) 
 (  71->  60)  (  72->  35)  (  73->  13)  (  74->  74)  (  75->   4) 
 (  76->  87)  (  77->  17)  (  78->  78)  (  79->   8)  (  80->  91) 
 (  81->  21)  (  82->  82)  (  83->  12)  (  84->  95)  (  85->  85) 
 (  86->  38)  (  87->  76)  (  88->  51)  (  89->  89)  (  90->  42) 
 (  91->  80)  (  92->  55)  (  93->  93)  (  94->  46)  (  95->  84) 
 (  96->  59)  (  97->  49)  (  98->   2)  (  99->  40)  ( 100->  15) 
 ( 101->  53)  ( 102->   6)  ( 103->  44)  ( 104->  19)  ( 105->  57) 
 ( 106->  10)  ( 107->  48)  ( 108->  23) 


 irot  :  11
 --------------------------------------------------------------------
 isymop:   0   0  -1
           0   1   0
           1   0   0

 gtrans:     0.0000000     0.0000000     0.0000000

 ptrans:     0.0000000     0.0000000     0.0000000
 rotmap:
 (   1->   1)  (   2->  12)  (   3->  11)  (   4->   2)  (   5->  37) 
 (   6->  48)  (   7->  47)  (   8->  38)  (   9->  73)  (  10->  84) 
 (  11->  83)  (  12->  74)  (  13->  13)  (  14->  24)  (  15->  23) 
 (  16->  14)  (  17->  49)  (  18->  60)  (  19->  59)  (  20->  50) 
 (  21->  85)  (  22->  96)  (  23->  95)  (  24->  86)  (  25->  25) 
 (  26->  36)  (  27->  35)  (  28->  26)  (  29->  61)  (  30->  72) 
 (  31->  71)  (  32->  62)  (  33->  97)  (  34-> 108)  (  35-> 107) 
 (  36->  98)  (  37->   9)  (  38->   8)  (  39->   7)  (  40->  10) 
 (  41->  45)  (  42->  44)  (  43->  43)  (  44->  46)  (  45->  81) 
 (  46->  80)  (  47->  79)  (  48->  82)  (  49->  21)  (  50->  20) 
 (  51->  19)  (  52->  22)  (  53->  57)  (  54->  56)  (  55->  55) 
 (  56->  58)  (  57->  93)  (  58->  92)  (  59->  91)  (  60->  94) 
 (  61->  33)  (  62->  32)  (  63->  31)  (  64->  34)  (  65->  69) 
 (  66->  68)  (  67->  67)  (  68->  70)  (  69-> 105)  (  70-> 104) 
 (  71-> 103)  (  72-> 106)  (  73->   5)  (  74->   4)  (  75->   3) 
 (  76->   6)  (  77->  41)  (  78->  40)  (  79->  39)  (  80->  42) 
 (  81->  77)  (  82->  76)  (  83->  75)  (  84->  78)  (  85->  17) 
 (  86->  16)  (  87->  15)  (  88->  18)  (  89->  53)  (  90->  52) 
 (  91->  51)  (  92->  54)  (  93->  89)  (  94->  88)  (  95->  87) 
 (  96->  90)  (  97->  29)  (  98->  28)  (  99->  27)  ( 100->  30) 
 ( 101->  65)  ( 102->  64)  ( 103->  63)  ( 104->  66)  ( 105-> 101) 
 ( 106-> 100)  ( 107->  99)  ( 108-> 102) 


 irot  :  12
 --------------------------------------------------------------------
 isymop:   0   0   1
           0  -1   0
          -1   0   0

 gtrans:     0.0000000     0.0000000     0.0000000

 ptrans:     0.0000000     0.0000000     0.0000000
 rotmap:
 (   1->   1)  (   2->  28)  (   3->  75)  (   4->  98)  (   5->  73) 
 (   6-> 100)  (   7->  39)  (   8->  62)  (   9->  37)  (  10->  64) 
 (  11->   3)  (  12->  26)  (  13->  25)  (  14->  16)  (  15->  99) 
 (  16->  86)  (  17->  97)  (  18->  88)  (  19->  63)  (  20->  50) 
 (  21->  61)  (  22->  52)  (  23->  27)  (  24->  14)  (  25->  13) 
 (  26->   4)  (  27->  87)  (  28->  74)  (  29->  85)  (  30->  76) 
 (  31->  51)  (  32->  38)  (  33->  49)  (  34->  40)  (  35->  15) 
 (  36->   2)  (  37->   5)  (  38->  32)  (  39->  79)  (  40-> 102) 
 (  41->  77)  (  42-> 104)  (  43->  43)  (  44->  66)  (  45->  41) 
 (  46->  68)  (  47->   7)  (  48->  30)  (  49->  29)  (  50->  20) 
 (  51-> 103)  (  52->  90)  (  53-> 101)  (  54->  92)  (  55->  67) 
 (  56->  54)  (  57->  65)  (  58->  56)  (  59->  31)  (  60->  18) 
 (  61->  17)  (  62->   8)  (  63->  91)  (  64->  78)  (  65->  89) 
 (  66->  80)  (  67->  55)  (  68->  42)  (  69->  53)  (  70->  44) 
 (  71->  19)  (  72->   6)  (  73->   9)  (  74->  36)  (  75->  83) 
 (  76-> 106)  (  77->  81)  (  78-> 108)  (  79->  47)  (  80->  70) 
 (  81->  45)  (  82->  72)  (  83->  11)  (  84->  34)  (  85->  33) 
 (  86->  24)  (  87-> 107)  (  88->  94)  (  89-> 105)  (  90->  96) 
 (  91->  71)  (  92->  58)  (  93->  69)  (  94->  60)  (  95->  35) 
 (  96->  22)  (  97->  21)  (  98->  12)  (  99->  95)  ( 100->  82) 
 ( 101->  93)  ( 102->  84)  ( 103->  59)  ( 104->  46)  ( 105->  57) 
 ( 106->  48)  ( 107->  23)  ( 108->  10) 


 irot  :  13
 --------------------------------------------------------------------
 isymop:  -1   0   0
           0  -1   0
           0   0   1

 gtrans:     0.0000000     0.0000000     0.0000000

 ptrans:     0.0000000     0.0000000     0.0000000
 rotmap:
 (   1->   1)  (   2->  26)  (   3->  11)  (   4->  36)  (   5->   9) 
 (   6->  34)  (   7->   7)  (   8->  32)  (   9->   5)  (  10->  30) 
 (  11->   3)  (  12->  28)  (  13->  25)  (  14->  14)  (  15->  35) 
 (  16->  24)  (  17->  33)  (  18->  22)  (  19->  31)  (  20->  20) 
 (  21->  29)  (  22->  18)  (  23->  27)  (  24->  16)  (  25->  13) 
 (  26->   2)  (  27->  23)  (  28->  12)  (  29->  21)  (  30->  10) 
 (  31->  19)  (  32->   8)  (  33->  17)  (  34->   6)  (  35->  15) 
 (  36->   4)  (  37->  37)  (  38->  62)  (  39->  47)  (  40->  72) 
 (  41->  45)  (  42->  70)  (  43->  43)  (  44->  68)  (  45->  41) 
 (  46->  66)  (  47->  39)  (  48->  64)  (  49->  61)  (  50->  50) 
 (  51->  71)  (  52->  60)  (  53->  69)  (  54->  58)  (  55->  67) 
 (  56->  56)  (  57->  65)  (  58->  54)  (  59->  63)  (  60->  52) 
 (  61->  49)  (  62->  38)  (  63->  59)  (  64->  48)  (  65->  57) 
 (  66->  46)  (  67->  55)  (  68->  44)  (  69->  53)  (  70->  42) 
 (  71->  51)  (  72->  40)  (  73->  73)  (  74->  98)  (  75->  83) 
 (  76-> 108)  (  77->  81)  (  78-> 106)  (  79->  79)  (  80-> 104) 
 (  81->  77)  (  82-> 102)  (  83->  75)  (  84-> 100)  (  85->  97) 
 (  86->  86)  (  87-> 107)  (  88->  96)  (  89-> 105)  (  90->  94) 
 (  91-> 103)  (  92->  92)  (  93-> 101)  (  94->  90)  (  95->  99) 
 (  96->  88)  (  97->  85)  (  98->  74)  (  99->  95)  ( 100->  84) 
 ( 101->  93)  ( 102->  82)  ( 103->  91)  ( 104->  80)  ( 105->  89) 
 ( 106->  78)  ( 107->  87)  ( 108->  76) 


 irot  :  14
 --------------------------------------------------------------------
 isymop:   1   0   0
           0   1   0
           0   0  -1

 gtrans:     0.0000000     0.0000000     0.0000000

 ptrans:     0.0000000     0.0000000     0.0000000
 rotmap:
 (   1->   1)  (   2->  74)  (   3->  75)  (   4->   4)  (   5->   5) 
 (   6->  78)  (   7->  79)  (   8->   8)  (   9->   9)  (  10->  82) 
 (  11->  83)  (  12->  12)  (  13->  13)  (  14->  86)  (  15->  87) 
 (  16->  16)  (  17->  17)  (  18->  90)  (  19->  91)  (  20->  20) 
 (  21->  21)  (  22->  94)  (  23->  95)  (  24->  24)  (  25->  25) 
 (  26->  98)  (  27->  99)  (  28->  28)  (  29->  29)  (  30-> 102) 
 (  31-> 103)  (  32->  32)  (  33->  33)  (  34-> 106)  (  35-> 107) 
 (  36->  36)  (  37->  73)  (  38->  38)  (  39->  39)  (  40->  76) 
 (  41->  77)  (  42->  42)  (  43->  43)  (  44->  80)  (  45->  81) 
 (  46->  46)  (  47->  47)  (  48->  84)  (  49->  85)  (  50->  50) 
 (  51->  51)  (  52->  88)  (  53->  89)  (  54->  54)  (  55->  55) 
 (  56->  92)  (  57->  93)  (  58->  58)  (  59->  59)  (  60->  96) 
 (  61->  97)  (  62->  62)  (  63->  63)  (  64-> 100)  (  65-> 101) 
 (  66->  66)  (  67->  67)  (  68-> 104)  (  69-> 105)  (  70->  70) 
 (  71->  71)  (  72-> 108)  (  73->  37)  (  74->   2)  (  75->   3) 
 (  76->  40)  (  77->  41)  (  78->   6)  (  79->   7)  (  80->  44) 
 (  81->  45)  (  82->  10)  (  83->  11)  (  84->  48)  (  85->  49) 
 (  86->  14)  (  87->  15)  (  88->  52)  (  89->  53)  (  90->  18) 
 (  91->  19)  (  92->  56)  (  93->  57)  (  94->  22)  (  95->  23) 
 (  96->  60)  (  97->  61)  (  98->  26)  (  99->  27)  ( 100->  64) 
 ( 101->  65)  ( 102->  30)  ( 103->  31)  ( 104->  68)  ( 105->  69) 
 ( 106->  34)  ( 107->  35)  ( 108->  72) 


 irot  :  15
 --------------------------------------------------------------------
 isymop:   0   0  -1
          -1   0   0
           0   1   0

 gtrans:     0.0000000     0.0000000     0.0000000

 ptrans:     0.0000000     0.0000000     0.0000000
 rotmap:
 (   1->   1)  (   2->  11)  (   3->  36)  (   4->  26)  (   5->  25) 
 (   6->  35)  (   7->  24)  (   8->  14)  (   9->  13)  (  10->  23) 
 (  11->  12)  (  12->   2)  (  13->  37)  (  14->  47)  (  15->  72) 
 (  16->  62)  (  17->  61)  (  18->  71)  (  19->  60)  (  20->  50) 
 (  21->  49)  (  22->  59)  (  23->  48)  (  24->  38)  (  25->  73) 
 (  26->  83)  (  27-> 108)  (  28->  98)  (  29->  97)  (  30-> 107) 
 (  31->  96)  (  32->  86)  (  33->  85)  (  34->  95)  (  35->  84) 
 (  36->  74)  (  37->   9)  (  38->   7)  (  39->  32)  (  40->  34) 
 (  41->  33)  (  42->  31)  (  43->  20)  (  44->  22)  (  45->  21) 
 (  46->  19)  (  47->   8)  (  48->  10)  (  49->  45)  (  50->  43) 
 (  51->  68)  (  52->  70)  (  53->  69)  (  54->  67)  (  55->  56) 
 (  56->  58)  (  57->  57)  (  58->  55)  (  59->  44)  (  60->  46) 
 (  61->  81)  (  62->  79)  (  63-> 104)  (  64-> 106)  (  65-> 105) 
 (  66-> 103)  (  67->  92)  (  68->  94)  (  69->  93)  (  70->  91) 
 (  71->  80)  (  72->  82)  (  73->   5)  (  74->   3)  (  75->  28) 
 (  76->  30)  (  77->  29)  (  78->  27)  (  79->  16)  (  80->  18) 
 (  81->  17)  (  82->  15)  (  83->   4)  (  84->   6)  (  85->  41) 
 (  86->  39)  (  87->  64)  (  88->  66)  (  89->  65)  (  90->  63) 
 (  91->  52)  (  92->  54)  (  93->  53)  (  94->  51)  (  95->  40) 
 (  96->  42)  (  97->  77)  (  98->  75)  (  99-> 100)  ( 100-> 102) 
 ( 101-> 101)  ( 102->  99)  ( 103->  88)  ( 104->  90)  ( 105->  89) 
 ( 106->  87)  ( 107->  76)  ( 108->  78) 


 irot  :  16
 --------------------------------------------------------------------
 isymop:   0   0   1
           1   0   0
           0  -1   0

 gtrans:     0.0000000     0.0000000     0.0000000

 ptrans:     0.0000000     0.0000000     0.0000000
 rotmap:
 (   1->   1)  (   2->  75)  (   3->   4)  (   4->  74)  (   5->  13) 
 (   6->  87)  (   7->  16)  (   8->  86)  (   9->  25)  (  10->  99) 
 (  11->  28)  (  12->  98)  (  13->  73)  (  14->  39)  (  15->  76) 
 (  16->  38)  (  17->  85)  (  18->  51)  (  19->  88)  (  20->  50) 
 (  21->  97)  (  22->  63)  (  23-> 100)  (  24->  62)  (  25->  37) 
 (  26->   3)  (  27->  40)  (  28->   2)  (  29->  49)  (  30->  15) 
 (  31->  52)  (  32->  14)  (  33->  61)  (  34->  27)  (  35->  64) 
 (  36->  26)  (  37->   5)  (  38->  79)  (  39->   8)  (  40->  78) 
 (  41->  17)  (  42->  91)  (  43->  20)  (  44->  90)  (  45->  29) 
 (  46-> 103)  (  47->  32)  (  48-> 102)  (  49->  77)  (  50->  43) 
 (  51->  80)  (  52->  42)  (  53->  89)  (  54->  55)  (  55->  92) 
 (  56->  54)  (  57-> 101)  (  58->  67)  (  59-> 104)  (  60->  66) 
 (  61->  41)  (  62->   7)  (  63->  44)  (  64->   6)  (  65->  53) 
 (  66->  19)  (  67->  56)  (  68->  18)  (  69->  65)  (  70->  31) 
 (  71->  68)  (  72->  30)  (  73->   9)  (  74->  83)  (  75->  12) 
 (  76->  82)  (  77->  21)  (  78->  95)  (  79->  24)  (  80->  94) 
 (  81->  33)  (  82-> 107)  (  83->  36)  (  84-> 106)  (  85->  81) 
 (  86->  47)  (  87->  84)  (  88->  46)  (  89->  93)  (  90->  59) 
 (  91->  96)  (  92->  58)  (  93-> 105)  (  94->  71)  (  95-> 108) 
 (  96->  70)  (  97->  45)  (  98->  11)  (  99->  48)  ( 100->  10) 
 ( 101->  57)  ( 102->  23)  ( 103->  60)  ( 104->  22)  ( 105->  69) 
 ( 106->  35)  ( 107->  72)  ( 108->  34) 


 irot  :  17
 --------------------------------------------------------------------
 isymop:   0  -1   0
           0   0  -1
           1   0   0

 gtrans:     0.0000000     0.0000000     0.0000000

 ptrans:     0.0000000     0.0000000     0.0000000
 rotmap:
 (   1->   1)  (   2->  36)  (   3->  26)  (   4->  11)  (   5->  37) 
 (   6->  72)  (   7->  62)  (   8->  47)  (   9->  73)  (  10-> 108) 
 (  11->  98)  (  12->  83)  (  13->   9)  (  14->  32)  (  15->  34) 
 (  16->   7)  (  17->  45)  (  18->  68)  (  19->  70)  (  20->  43) 
 (  21->  81)  (  22-> 104)  (  23-> 106)  (  24->  79)  (  25->   5) 
 (  26->  28)  (  27->  30)  (  28->   3)  (  29->  41)  (  30->  64) 
 (  31->  66)  (  32->  39)  (  33->  77)  (  34-> 100)  (  35-> 102) 
 (  36->  75)  (  37->  25)  (  38->  24)  (  39->  14)  (  40->  35) 
 (  41->  61)  (  42->  60)  (  43->  50)  (  44->  71)  (  45->  97) 
 (  46->  96)  (  47->  86)  (  48-> 107)  (  49->  33)  (  50->  20) 
 (  51->  22)  (  52->  31)  (  53->  69)  (  54->  56)  (  55->  58) 
 (  56->  67)  (  57-> 105)  (  58->  92)  (  59->  94)  (  60-> 103) 
 (  61->  29)  (  62->  16)  (  63->  18)  (  64->  27)  (  65->  65) 
 (  66->  52)  (  67->  54)  (  68->  63)  (  69-> 101)  (  70->  88) 
 (  71->  90)  (  72->  99)  (  73->  13)  (  74->  12)  (  75->   2) 
 (  76->  23)  (  77->  49)  (  78->  48)  (  79->  38)  (  80->  59) 
 (  81->  85)  (  82->  84)  (  83->  74)  (  84->  95)  (  85->  21) 
 (  86->   8)  (  87->  10)  (  88->  19)  (  89->  57)  (  90->  44) 
 (  91->  46)  (  92->  55)  (  93->  93)  (  94->  80)  (  95->  82) 
 (  96->  91)  (  97->  17)  (  98->   4)  (  99->   6)  ( 100->  15) 
 ( 101->  53)  ( 102->  40)  ( 103->  42)  ( 104->  51)  ( 105->  89) 
 ( 106->  76)  ( 107->  78)  ( 108->  87) 


 irot  :  18
 --------------------------------------------------------------------
 isymop:   0   1   0
           0   0   1
          -1   0   0

 gtrans:     0.0000000     0.0000000     0.0000000

 ptrans:     0.0000000     0.0000000     0.0000000
 rotmap:
 (   1->   1)  (   2->   4)  (   3->  74)  (   4->  75)  (   5->  73) 
 (   6->  76)  (   7->  38)  (   8->  39)  (   9->  37)  (  10->  40) 
 (  11->   2)  (  12->   3)  (  13->   5)  (  14->   8)  (  15->  78) 
 (  16->  79)  (  17->  77)  (  18->  80)  (  19->  42)  (  20->  43) 
 (  21->  41)  (  22->  44)  (  23->   6)  (  24->   7)  (  25->   9) 
 (  26->  12)  (  27->  82)  (  28->  83)  (  29->  81)  (  30->  84) 
 (  31->  46)  (  32->  47)  (  33->  45)  (  34->  48)  (  35->  10) 
 (  36->  11)  (  37->  13)  (  38->  16)  (  39->  86)  (  40->  87) 
 (  41->  85)  (  42->  88)  (  43->  50)  (  44->  51)  (  45->  49) 
 (  46->  52)  (  47->  14)  (  48->  15)  (  49->  17)  (  50->  20) 
 (  51->  90)  (  52->  91)  (  53->  89)  (  54->  92)  (  55->  54) 
 (  56->  55)  (  57->  53)  (  58->  56)  (  59->  18)  (  60->  19) 
 (  61->  21)  (  62->  24)  (  63->  94)  (  64->  95)  (  65->  93) 
 (  66->  96)  (  67->  58)  (  68->  59)  (  69->  57)  (  70->  60) 
 (  71->  22)  (  72->  23)  (  73->  25)  (  74->  28)  (  75->  98) 
 (  76->  99)  (  77->  97)  (  78-> 100)  (  79->  62)  (  80->  63) 
 (  81->  61)  (  82->  64)  (  83->  26)  (  84->  27)  (  85->  29) 
 (  86->  32)  (  87-> 102)  (  88-> 103)  (  89-> 101)  (  90-> 104) 
 (  91->  66)  (  92->  67)  (  93->  65)  (  94->  68)  (  95->  30) 
 (  96->  31)  (  97->  33)  (  98->  36)  (  99-> 106)  ( 100-> 107) 
 ( 101-> 105)  ( 102-> 108)  ( 103->  70)  ( 104->  71)  ( 105->  69) 
 ( 106->  72)  ( 107->  34)  ( 108->  35) 


 irot  :  19
 --------------------------------------------------------------------
 isymop:   0   1   0
          -1   0   0
           0   0   1

 gtrans:     0.0000000     0.0000000     0.0000000

 ptrans:     0.0000000     0.0000000     0.0000000
 rotmap:
 (   1->   1)  (   2->   3)  (   3->  26)  (   4->  28)  (   5->  25) 
 (   6->  27)  (   7->  14)  (   8->  16)  (   9->  13)  (  10->  15) 
 (  11->   2)  (  12->   4)  (  13->   5)  (  14->   7)  (  15->  30) 
 (  16->  32)  (  17->  29)  (  18->  31)  (  19->  18)  (  20->  20) 
 (  21->  17)  (  22->  19)  (  23->   6)  (  24->   8)  (  25->   9) 
 (  26->  11)  (  27->  34)  (  28->  36)  (  29->  33)  (  30->  35) 
 (  31->  22)  (  32->  24)  (  33->  21)  (  34->  23)  (  35->  10) 
 (  36->  12)  (  37->  37)  (  38->  39)  (  39->  62)  (  40->  64) 
 (  41->  61)  (  42->  63)  (  43->  50)  (  44->  52)  (  45->  49) 
 (  46->  51)  (  47->  38)  (  48->  40)  (  49->  41)  (  50->  43) 
 (  51->  66)  (  52->  68)  (  53->  65)  (  54->  67)  (  55->  54) 
 (  56->  56)  (  57->  53)  (  58->  55)  (  59->  42)  (  60->  44) 
 (  61->  45)  (  62->  47)  (  63->  70)  (  64->  72)  (  65->  69) 
 (  66->  71)  (  67->  58)  (  68->  60)  (  69->  57)  (  70->  59) 
 (  71->  46)  (  72->  48)  (  73->  73)  (  74->  75)  (  75->  98) 
 (  76-> 100)  (  77->  97)  (  78->  99)  (  79->  86)  (  80->  88) 
 (  81->  85)  (  82->  87)  (  83->  74)  (  84->  76)  (  85->  77) 
 (  86->  79)  (  87-> 102)  (  88-> 104)  (  89-> 101)  (  90-> 103) 
 (  91->  90)  (  92->  92)  (  93->  89)  (  94->  91)  (  95->  78) 
 (  96->  80)  (  97->  81)  (  98->  83)  (  99-> 106)  ( 100-> 108) 
 ( 101-> 105)  ( 102-> 107)  ( 103->  94)  ( 104->  96)  ( 105->  93) 
 ( 106->  95)  ( 107->  82)  ( 108->  84) 


 irot  :  20
 --------------------------------------------------------------------
 isymop:   0  -1   0
           1   0   0
           0   0  -1

 gtrans:     0.0000000     0.0000000     0.0000000

 ptrans:     0.0000000     0.0000000     0.0000000
 rotmap:
 (   1->   1)  (   2->  83)  (   3->  74)  (   4->  12)  (   5->  13) 
 (   6->  95)  (   7->  86)  (   8->  24)  (   9->  25)  (  10-> 107) 
 (  11->  98)  (  12->  36)  (  13->   9)  (  14->  79)  (  15->  82) 
 (  16->   8)  (  17->  21)  (  18->  91)  (  19->  94)  (  20->  20) 
 (  21->  33)  (  22-> 103)  (  23-> 106)  (  24->  32)  (  25->   5) 
 (  26->  75)  (  27->  78)  (  28->   4)  (  29->  17)  (  30->  87) 
 (  31->  90)  (  32->  16)  (  33->  29)  (  34->  99)  (  35-> 102) 
 (  36->  28)  (  37->  73)  (  38->  47)  (  39->  38)  (  40->  84) 
 (  41->  85)  (  42->  59)  (  43->  50)  (  44->  96)  (  45->  97) 
 (  46->  71)  (  47->  62)  (  48-> 108)  (  49->  81)  (  50->  43) 
 (  51->  46)  (  52->  80)  (  53->  93)  (  54->  55)  (  55->  58) 
 (  56->  92)  (  57-> 105)  (  58->  67)  (  59->  70)  (  60-> 104) 
 (  61->  77)  (  62->  39)  (  63->  42)  (  64->  76)  (  65->  89) 
 (  66->  51)  (  67->  54)  (  68->  88)  (  69-> 101)  (  70->  63) 
 (  71->  66)  (  72-> 100)  (  73->  37)  (  74->  11)  (  75->   2) 
 (  76->  48)  (  77->  49)  (  78->  23)  (  79->  14)  (  80->  60) 
 (  81->  61)  (  82->  35)  (  83->  26)  (  84->  72)  (  85->  45) 
 (  86->   7)  (  87->  10)  (  88->  44)  (  89->  57)  (  90->  19) 
 (  91->  22)  (  92->  56)  (  93->  69)  (  94->  31)  (  95->  34) 
 (  96->  68)  (  97->  41)  (  98->   3)  (  99->   6)  ( 100->  40) 
 ( 101->  53)  ( 102->  15)  ( 103->  18)  ( 104->  52)  ( 105->  65) 
 ( 106->  27)  ( 107->  30)  ( 108->  64) 


 irot  :  21
 --------------------------------------------------------------------
 isymop:   1   0   0
           0   0  -1
           0   1   0

 gtrans:     0.0000000     0.0000000     0.0000000

 ptrans:     0.0000000     0.0000000     0.0000000
 rotmap:
 (   1->   1)  (   2->  26)  (   3->  28)  (   4->   3)  (   5->   5) 
 (   6->  30)  (   7->  32)  (   8->   7)  (   9->   9)  (  10->  34) 
 (  11->  36)  (  12->  11)  (  13->  37)  (  14->  62)  (  15->  64) 
 (  16->  39)  (  17->  41)  (  18->  66)  (  19->  68)  (  20->  43) 
 (  21->  45)  (  22->  70)  (  23->  72)  (  24->  47)  (  25->  73) 
 (  26->  98)  (  27-> 100)  (  28->  75)  (  29->  77)  (  30-> 102) 
 (  31-> 104)  (  32->  79)  (  33->  81)  (  34-> 106)  (  35-> 108) 
 (  36->  83)  (  37->  25)  (  38->  14)  (  39->  16)  (  40->  27) 
 (  41->  29)  (  42->  18)  (  43->  20)  (  44->  31)  (  45->  33) 
 (  46->  22)  (  47->  24)  (  48->  35)  (  49->  61)  (  50->  50) 
 (  51->  52)  (  52->  63)  (  53->  65)  (  54->  54)  (  55->  56) 
 (  56->  67)  (  57->  69)  (  58->  58)  (  59->  60)  (  60->  71) 
 (  61->  97)  (  62->  86)  (  63->  88)  (  64->  99)  (  65-> 101) 
 (  66->  90)  (  67->  92)  (  68-> 103)  (  69-> 105)  (  70->  94) 
 (  71->  96)  (  72-> 107)  (  73->  13)  (  74->   2)  (  75->   4) 
 (  76->  15)  (  77->  17)  (  78->   6)  (  79->   8)  (  80->  19) 
 (  81->  21)  (  82->  10)  (  83->  12)  (  84->  23)  (  85->  49) 
 (  86->  38)  (  87->  40)  (  88->  51)  (  89->  53)  (  90->  42) 
 (  91->  44)  (  92->  55)  (  93->  57)  (  94->  46)  (  95->  48) 
 (  96->  59)  (  97->  85)  (  98->  74)  (  99->  76)  ( 100->  87) 
 ( 101->  89)  ( 102->  78)  ( 103->  80)  ( 104->  91)  ( 105->  93) 
 ( 106->  82)  ( 107->  84)  ( 108->  95) 


 irot  :  22
 --------------------------------------------------------------------
 isymop:  -1   0   0
           0   0   1
           0  -1   0

 gtrans:     0.0000000     0.0000000     0.0000000

 ptrans:     0.0000000     0.0000000     0.0000000
 rotmap:
 (   1->   1)  (   2->  74)  (   3->  12)  (   4->  83)  (   5->   9) 
 (   6->  82)  (   7->   8)  (   8->  79)  (   9->   5)  (  10->  78) 
 (  11->   4)  (  12->  75)  (  13->  73)  (  14->  38)  (  15->  84) 
 (  16->  47)  (  17->  81)  (  18->  46)  (  19->  80)  (  20->  43) 
 (  21->  77)  (  22->  42)  (  23->  76)  (  24->  39)  (  25->  37) 
 (  26->   2)  (  27->  48)  (  28->  11)  (  29->  45)  (  30->  10) 
 (  31->  44)  (  32->   7)  (  33->  41)  (  34->   6)  (  35->  40) 
 (  36->   3)  (  37->  13)  (  38->  86)  (  39->  24)  (  40->  95) 
 (  41->  21)  (  42->  94)  (  43->  20)  (  44->  91)  (  45->  17) 
 (  46->  90)  (  47->  16)  (  48->  87)  (  49->  85)  (  50->  50) 
 (  51->  96)  (  52->  59)  (  53->  93)  (  54->  58)  (  55->  92) 
 (  56->  55)  (  57->  89)  (  58->  54)  (  59->  88)  (  60->  51) 
 (  61->  49)  (  62->  14)  (  63->  60)  (  64->  23)  (  65->  57) 
 (  66->  22)  (  67->  56)  (  68->  19)  (  69->  53)  (  70->  18) 
 (  71->  52)  (  72->  15)  (  73->  25)  (  74->  98)  (  75->  36) 
 (  76-> 107)  (  77->  33)  (  78-> 106)  (  79->  32)  (  80-> 103) 
 (  81->  29)  (  82-> 102)  (  83->  28)  (  84->  99)  (  85->  97) 
 (  86->  62)  (  87-> 108)  (  88->  71)  (  89-> 105)  (  90->  70) 
 (  91-> 104)  (  92->  67)  (  93-> 101)  (  94->  66)  (  95-> 100) 
 (  96->  63)  (  97->  61)  (  98->  26)  (  99->  72)  ( 100->  35) 
 ( 101->  69)  ( 102->  34)  ( 103->  68)  ( 104->  31)  ( 105->  65) 
 ( 106->  30)  ( 107->  64)  ( 108->  27) 


 irot  :  23
 --------------------------------------------------------------------
 isymop:   0   0   1
           0  -1   0
           1   0   0

 gtrans:     0.0000000     0.0000000     0.0000000

 ptrans:     0.0000000     0.0000000     0.0000000
 rotmap:
 (   1->   1)  (   2->  28)  (   3->   3)  (   4->  26)  (   5->  37) 
 (   6->  64)  (   7->  39)  (   8->  62)  (   9->  73)  (  10-> 100) 
 (  11->  75)  (  12->  98)  (  13->  25)  (  14->  16)  (  15->  27) 
 (  16->  14)  (  17->  61)  (  18->  52)  (  19->  63)  (  20->  50) 
 (  21->  97)  (  22->  88)  (  23->  99)  (  24->  86)  (  25->  13) 
 (  26->   4)  (  27->  15)  (  28->   2)  (  29->  49)  (  30->  40) 
 (  31->  51)  (  32->  38)  (  33->  85)  (  34->  76)  (  35->  87) 
 (  36->  74)  (  37->   5)  (  38->  32)  (  39->   7)  (  40->  30) 
 (  41->  41)  (  42->  68)  (  43->  43)  (  44->  66)  (  45->  77) 
 (  46-> 104)  (  47->  79)  (  48-> 102)  (  49->  29)  (  50->  20) 
 (  51->  31)  (  52->  18)  (  53->  65)  (  54->  56)  (  55->  67) 
 (  56->  54)  (  57-> 101)  (  58->  92)  (  59-> 103)  (  60->  90) 
 (  61->  17)  (  62->   8)  (  63->  19)  (  64->   6)  (  65->  53) 
 (  66->  44)  (  67->  55)  (  68->  42)  (  69->  89)  (  70->  80) 
 (  71->  91)  (  72->  78)  (  73->   9)  (  74->  36)  (  75->  11) 
 (  76->  34)  (  77->  45)  (  78->  72)  (  79->  47)  (  80->  70) 
 (  81->  81)  (  82-> 108)  (  83->  83)  (  84-> 106)  (  85->  33) 
 (  86->  24)  (  87->  35)  (  88->  22)  (  89->  69)  (  90->  60) 
 (  91->  71)  (  92->  58)  (  93-> 105)  (  94->  96)  (  95-> 107) 
 (  96->  94)  (  97->  21)  (  98->  12)  (  99->  23)  ( 100->  10) 
 ( 101->  57)  ( 102->  48)  ( 103->  59)  ( 104->  46)  ( 105->  93) 
 ( 106->  84)  ( 107->  95)  ( 108->  82) 


 irot  :  24
 --------------------------------------------------------------------
 isymop:   0   0  -1
           0   1   0
          -1   0   0

 gtrans:     0.0000000     0.0000000     0.0000000

 ptrans:     0.0000000     0.0000000     0.0000000
 rotmap:
 (   1->   1)  (   2->  12)  (   3->  83)  (   4->  74)  (   5->  73) 
 (   6->  84)  (   7->  47)  (   8->  38)  (   9->  37)  (  10->  48) 
 (  11->  11)  (  12->   2)  (  13->  13)  (  14->  24)  (  15->  95) 
 (  16->  86)  (  17->  85)  (  18->  96)  (  19->  59)  (  20->  50) 
 (  21->  49)  (  22->  60)  (  23->  23)  (  24->  14)  (  25->  25) 
 (  26->  36)  (  27-> 107)  (  28->  98)  (  29->  97)  (  30-> 108) 
 (  31->  71)  (  32->  62)  (  33->  61)  (  34->  72)  (  35->  35) 
 (  36->  26)  (  37->   9)  (  38->   8)  (  39->  79)  (  40->  82) 
 (  41->  81)  (  42->  80)  (  43->  43)  (  44->  46)  (  45->  45) 
 (  46->  44)  (  47->   7)  (  48->  10)  (  49->  21)  (  50->  20) 
 (  51->  91)  (  52->  94)  (  53->  93)  (  54->  92)  (  55->  55) 
 (  56->  58)  (  57->  57)  (  58->  56)  (  59->  19)  (  60->  22) 
 (  61->  33)  (  62->  32)  (  63-> 103)  (  64-> 106)  (  65-> 105) 
 (  66-> 104)  (  67->  67)  (  68->  70)  (  69->  69)  (  70->  68) 
 (  71->  31)  (  72->  34)  (  73->   5)  (  74->   4)  (  75->  75) 
 (  76->  78)  (  77->  77)  (  78->  76)  (  79->  39)  (  80->  42) 
 (  81->  41)  (  82->  40)  (  83->   3)  (  84->   6)  (  85->  17) 
 (  86->  16)  (  87->  87)  (  88->  90)  (  89->  89)  (  90->  88) 
 (  91->  51)  (  92->  54)  (  93->  53)  (  94->  52)  (  95->  15) 
 (  96->  18)  (  97->  29)  (  98->  28)  (  99->  99)  ( 100-> 102) 
 ( 101-> 101)  ( 102-> 100)  ( 103->  63)  ( 104->  66)  ( 105->  65) 
 ( 106->  64)  ( 107->  27)  ( 108->  30) 


 irot  :  25
 --------------------------------------------------------------------
 isymop:   0   0   1
          -1   0   0
           0  -1   0

 gtrans:     0.0000000     0.0000000     0.0000000

 ptrans:     0.0000000     0.0000000     0.0000000
 rotmap:
 (   1->   1)  (   2->  75)  (   3->  28)  (   4->  98)  (   5->  25) 
 (   6->  99)  (   7->  16)  (   8->  86)  (   9->  13)  (  10->  87) 
 (  11->   4)  (  12->  74)  (  13->  73)  (  14->  39)  (  15-> 100) 
 (  16->  62)  (  17->  97)  (  18->  63)  (  19->  88)  (  20->  50) 
 (  21->  85)  (  22->  51)  (  23->  76)  (  24->  38)  (  25->  37) 
 (  26->   3)  (  27->  64)  (  28->  26)  (  29->  61)  (  30->  27) 
 (  31->  52)  (  32->  14)  (  33->  49)  (  34->  15)  (  35->  40) 
 (  36->   2)  (  37->   5)  (  38->  79)  (  39->  32)  (  40-> 102) 
 (  41->  29)  (  42-> 103)  (  43->  20)  (  44->  90)  (  45->  17) 
 (  46->  91)  (  47->   8)  (  48->  78)  (  49->  77)  (  50->  43) 
 (  51-> 104)  (  52->  66)  (  53-> 101)  (  54->  67)  (  55->  92) 
 (  56->  54)  (  57->  89)  (  58->  55)  (  59->  80)  (  60->  42) 
 (  61->  41)  (  62->   7)  (  63->  68)  (  64->  30)  (  65->  65) 
 (  66->  31)  (  67->  56)  (  68->  18)  (  69->  53)  (  70->  19) 
 (  71->  44)  (  72->   6)  (  73->   9)  (  74->  83)  (  75->  36) 
 (  76-> 106)  (  77->  33)  (  78-> 107)  (  79->  24)  (  80->  94) 
 (  81->  21)  (  82->  95)  (  83->  12)  (  84->  82)  (  85->  81) 
 (  86->  47)  (  87-> 108)  (  88->  70)  (  89-> 105)  (  90->  71) 
 (  91->  96)  (  92->  58)  (  93->  93)  (  94->  59)  (  95->  84) 
 (  96->  46)  (  97->  45)  (  98->  11)  (  99->  72)  ( 100->  34) 
 ( 101->  69)  ( 102->  35)  ( 103->  60)  ( 104->  22)  ( 105->  57) 
 ( 106->  23)  ( 107->  48)  ( 108->  10) 


 irot  :  26
 --------------------------------------------------------------------
 isymop:   0   0  -1
           1   0   0
           0   1   0

 gtrans:     0.0000000     0.0000000     0.0000000

 ptrans:     0.0000000     0.0000000     0.0000000
 rotmap:
 (   1->   1)  (   2->  11)  (   3->  12)  (   4->   2)  (   5->  13) 
 (   6->  23)  (   7->  24)  (   8->  14)  (   9->  25)  (  10->  35) 
 (  11->  36)  (  12->  26)  (  13->  37)  (  14->  47)  (  15->  48) 
 (  16->  38)  (  17->  49)  (  18->  59)  (  19->  60)  (  20->  50) 
 (  21->  61)  (  22->  71)  (  23->  72)  (  24->  62)  (  25->  73) 
 (  26->  83)  (  27->  84)  (  28->  74)  (  29->  85)  (  30->  95) 
 (  31->  96)  (  32->  86)  (  33->  97)  (  34-> 107)  (  35-> 108) 
 (  36->  98)  (  37->   9)  (  38->   7)  (  39->   8)  (  40->  10) 
 (  41->  21)  (  42->  19)  (  43->  20)  (  44->  22)  (  45->  33) 
 (  46->  31)  (  47->  32)  (  48->  34)  (  49->  45)  (  50->  43) 
 (  51->  44)  (  52->  46)  (  53->  57)  (  54->  55)  (  55->  56) 
 (  56->  58)  (  57->  69)  (  58->  67)  (  59->  68)  (  60->  70) 
 (  61->  81)  (  62->  79)  (  63->  80)  (  64->  82)  (  65->  93) 
 (  66->  91)  (  67->  92)  (  68->  94)  (  69-> 105)  (  70-> 103) 
 (  71-> 104)  (  72-> 106)  (  73->   5)  (  74->   3)  (  75->   4) 
 (  76->   6)  (  77->  17)  (  78->  15)  (  79->  16)  (  80->  18) 
 (  81->  29)  (  82->  27)  (  83->  28)  (  84->  30)  (  85->  41) 
 (  86->  39)  (  87->  40)  (  88->  42)  (  89->  53)  (  90->  51) 
 (  91->  52)  (  92->  54)  (  93->  65)  (  94->  63)  (  95->  64) 
 (  96->  66)  (  97->  77)  (  98->  75)  (  99->  76)  ( 100->  78) 
 ( 101->  89)  ( 102->  87)  ( 103->  88)  ( 104->  90)  ( 105-> 101) 
 ( 106->  99)  ( 107-> 100)  ( 108-> 102) 


 irot  :  27
 --------------------------------------------------------------------
 isymop:   0   1   0
           0   0  -1
          -1   0   0

 gtrans:     0.0000000     0.0000000     0.0000000

 ptrans:     0.0000000     0.0000000     0.0000000
 rotmap:
 (   1->   1)  (   2->  28)  (   3->  98)  (   4->  75)  (   5->  73) 
 (   6-> 100)  (   7->  62)  (   8->  39)  (   9->  37)  (  10->  64) 
 (  11->  26)  (  12->   3)  (  13->   5)  (  14->  32)  (  15-> 102) 
 (  16->  79)  (  17->  77)  (  18-> 104)  (  19->  66)  (  20->  43) 
 (  21->  41)  (  22->  68)  (  23->  30)  (  24->   7)  (  25->   9) 
 (  26->  36)  (  27-> 106)  (  28->  83)  (  29->  81)  (  30-> 108) 
 (  31->  70)  (  32->  47)  (  33->  45)  (  34->  72)  (  35->  34) 
 (  36->  11)  (  37->  25)  (  38->  16)  (  39->  86)  (  40->  99) 
 (  41->  97)  (  42->  88)  (  43->  50)  (  44->  63)  (  45->  61) 
 (  46->  52)  (  47->  14)  (  48->  27)  (  49->  29)  (  50->  20) 
 (  51->  90)  (  52-> 103)  (  53-> 101)  (  54->  92)  (  55->  54) 
 (  56->  67)  (  57->  65)  (  58->  56)  (  59->  18)  (  60->  31) 
 (  61->  33)  (  62->  24)  (  63->  94)  (  64-> 107)  (  65-> 105) 
 (  66->  96)  (  67->  58)  (  68->  71)  (  69->  69)  (  70->  60) 
 (  71->  22)  (  72->  35)  (  73->  13)  (  74->   4)  (  75->  74) 
 (  76->  87)  (  77->  85)  (  78->  76)  (  79->  38)  (  80->  51) 
 (  81->  49)  (  82->  40)  (  83->   2)  (  84->  15)  (  85->  17) 
 (  86->   8)  (  87->  78)  (  88->  91)  (  89->  89)  (  90->  80) 
 (  91->  42)  (  92->  55)  (  93->  53)  (  94->  44)  (  95->   6) 
 (  96->  19)  (  97->  21)  (  98->  12)  (  99->  82)  ( 100->  95) 
 ( 101->  93)  ( 102->  84)  ( 103->  46)  ( 104->  59)  ( 105->  57) 
 ( 106->  48)  ( 107->  10)  ( 108->  23) 


 irot  :  28
 --------------------------------------------------------------------
 isymop:   0  -1   0
           0   0   1
           1   0   0

 gtrans:     0.0000000     0.0000000     0.0000000

 ptrans:     0.0000000     0.0000000     0.0000000
 rotmap:
 (   1->   1)  (   2->  12)  (   3->   2)  (   4->  11)  (   5->  37) 
 (   6->  48)  (   7->  38)  (   8->  47)  (   9->  73)  (  10->  84) 
 (  11->  74)  (  12->  83)  (  13->   9)  (  14->   8)  (  15->  10) 
 (  16->   7)  (  17->  45)  (  18->  44)  (  19->  46)  (  20->  43) 
 (  21->  81)  (  22->  80)  (  23->  82)  (  24->  79)  (  25->   5) 
 (  26->   4)  (  27->   6)  (  28->   3)  (  29->  41)  (  30->  40) 
 (  31->  42)  (  32->  39)  (  33->  77)  (  34->  76)  (  35->  78) 
 (  36->  75)  (  37->  13)  (  38->  24)  (  39->  14)  (  40->  23) 
 (  41->  49)  (  42->  60)  (  43->  50)  (  44->  59)  (  45->  85) 
 (  46->  96)  (  47->  86)  (  48->  95)  (  49->  21)  (  50->  20) 
 (  51->  22)  (  52->  19)  (  53->  57)  (  54->  56)  (  55->  58) 
 (  56->  55)  (  57->  93)  (  58->  92)  (  59->  94)  (  60->  91) 
 (  61->  17)  (  62->  16)  (  63->  18)  (  64->  15)  (  65->  53) 
 (  66->  52)  (  67->  54)  (  68->  51)  (  69->  89)  (  70->  88) 
 (  71->  90)  (  72->  87)  (  73->  25)  (  74->  36)  (  75->  26) 
 (  76->  35)  (  77->  61)  (  78->  72)  (  79->  62)  (  80->  71) 
 (  81->  97)  (  82-> 108)  (  83->  98)  (  84-> 107)  (  85->  33) 
 (  86->  32)  (  87->  34)  (  88->  31)  (  89->  69)  (  90->  68) 
 (  91->  70)  (  92->  67)  (  93-> 105)  (  94-> 104)  (  95-> 106) 
 (  96-> 103)  (  97->  29)  (  98->  28)  (  99->  30)  ( 100->  27) 
 ( 101->  65)  ( 102->  64)  ( 103->  66)  ( 104->  63)  ( 105-> 101) 
 ( 106-> 100)  ( 107-> 102)  ( 108->  99) 


 irot  :  29
 --------------------------------------------------------------------
 isymop:   1   0   0
           0  -1   0
           0   0  -1

 gtrans:     0.0000000     0.0000000     0.0000000

 ptrans:     0.0000000     0.0000000     0.0000000
 rotmap:
 (   1->   1)  (   2->  98)  (   3->  75)  (   4->  28)  (   5->   5) 
 (   6-> 102)  (   7->  79)  (   8->  32)  (   9->   9)  (  10-> 106) 
 (  11->  83)  (  12->  36)  (  13->  25)  (  14->  86)  (  15->  99) 
 (  16->  16)  (  17->  29)  (  18->  90)  (  19-> 103)  (  20->  20) 
 (  21->  33)  (  22->  94)  (  23-> 107)  (  24->  24)  (  25->  13) 
 (  26->  74)  (  27->  87)  (  28->   4)  (  29->  17)  (  30->  78) 
 (  31->  91)  (  32->   8)  (  33->  21)  (  34->  82)  (  35->  95) 
 (  36->  12)  (  37->  73)  (  38->  62)  (  39->  39)  (  40-> 100) 
 (  41->  77)  (  42->  66)  (  43->  43)  (  44-> 104)  (  45->  81) 
 (  46->  70)  (  47->  47)  (  48-> 108)  (  49->  97)  (  50->  50) 
 (  51->  63)  (  52->  88)  (  53-> 101)  (  54->  54)  (  55->  67) 
[...]
      3.54118      0.00000      0.00000        -0.006662      0.000000      0.000000
      3.52849      1.76512      1.76512         0.001808      0.002780      0.002780
      5.28641      0.00000      1.76602         0.000000      0.000000      0.007526
      5.28641      1.76602      0.00000         0.000000      0.007526      0.000000
      7.03165      0.00000      0.00000         0.006662      0.000000      0.000000
      7.04433      1.76512      1.76512        -0.001808      0.002780      0.002780
      8.80348      0.00000      1.76934         0.000078      0.000000     -0.000078
      8.80348      1.76934      0.00000         0.000078     -0.000078      0.000000
      0.00000      3.54118      0.00000         0.000000     -0.006662      0.000000
      0.00000      5.28641      1.76602         0.000000      0.000000      0.007526
      1.76512      3.52849      1.76512         0.002780      0.001808      0.002780
      1.76602      5.28641      0.00000         0.007526      0.000000      0.000000
      3.53685      3.53685      0.00000        -0.002007     -0.002007      0.000000
      3.52485      5.28641      1.76401         0.006044      0.000000      0.008302
      5.28641      3.52485      1.76401         0.000000      0.006044      0.008302
      5.28641      5.28641      0.00000         0.000000      0.000000      0.000000
      7.03597      3.53685      0.00000         0.002007     -0.002007      0.000000
      7.04798      5.28641      1.76401        -0.006044      0.000000      0.008302
      8.80771      3.52849      1.76512        -0.002780      0.001808      0.002780
      8.80681      5.28641      0.00000        -0.007526      0.000000      0.000000
      0.00000      7.03165      0.00000         0.000000      0.006662      0.000000
      0.00000      8.80348      1.76934         0.000000      0.000078     -0.000078
      1.76512      7.04433      1.76512         0.002780     -0.001808      0.002780
      1.76934      8.80348      0.00000        -0.000078      0.000078      0.000000
      3.53685      7.03597      0.00000        -0.002007      0.002007      0.000000
      3.52849      8.80771      1.76512         0.001808     -0.002780      0.002780
      5.28641      7.04798      1.76401         0.000000     -0.006044      0.008302
      5.28641      8.80681      0.00000         0.000000     -0.007526      0.000000
      7.03597      7.03597      0.00000         0.002007      0.002007      0.000000
      7.04433      8.80771      1.76512        -0.001808     -0.002780      0.002780
      8.80771      7.04433      1.76512        -0.002780     -0.001808      0.002780
      8.80348      8.80348      0.00000         0.000078      0.000078      0.000000
      0.00000      0.00000      3.54118         0.000000      0.000000     -0.006662
      0.00000      1.76602      5.28641         0.000000      0.007526      0.000000
      1.76602      0.00000      5.28641         0.007526      0.000000      0.000000
      1.76512      1.76512      3.52849         0.002780      0.002780      0.001808
      3.53685      0.00000      3.53685        -0.002007      0.000000     -0.002007
      3.52485      1.76401      5.28641         0.006044      0.008302      0.000000
      5.28641      0.00000      5.28641         0.000000      0.000000      0.000000
      5.28641      1.76401      3.52485         0.000000      0.008302      0.006044
      7.03597      0.00000      3.53685         0.002007      0.000000     -0.002007
      7.04798      1.76401      5.28641        -0.006044      0.008302      0.000000
      8.80681      0.00000      5.28641        -0.007526      0.000000      0.000000
      8.80771      1.76512      3.52849        -0.002780      0.002780      0.001808
      0.00000      3.53685      3.53685         0.000000     -0.002007     -0.002007
      0.00000      5.28641      5.28641         0.000000      0.000000      0.000000
      1.76401      3.52485      5.28641         0.008302      0.006044      0.000000
      1.76401      5.28641      3.52485         0.008302      0.000000      0.006044
      3.52537      3.52537      3.52537         0.004504      0.004504      0.004504
      3.52441      5.28641      5.28641         0.012817      0.000000      0.000000
      5.28641      3.52441      5.28641         0.000000      0.012817      0.000000
      5.28641      5.28641      3.52441         0.000000      0.000000      0.012817
      7.04746      3.52537      3.52537        -0.004504      0.004504      0.004504
      7.04842      5.28641      5.28641        -0.012817      0.000000      0.000000
      8.80882      3.52485      5.28641        -0.008302      0.006044      0.000000
      8.80882      5.28641      3.52485        -0.008302      0.000000      0.006044
      0.00000      7.03597      3.53685         0.000000      0.002007     -0.002007
      0.00000      8.80681      5.28641         0.000000     -0.007526      0.000000
      1.76401      7.04798      5.28641         0.008302     -0.006044      0.000000
      1.76512      8.80771      3.52849         0.002780     -0.002780      0.001808
      3.52537      7.04746      3.52537         0.004504     -0.004504      0.004504
      3.52485      8.80882      5.28641         0.006044     -0.008302      0.000000
      5.28641      7.04842      5.28641         0.000000     -0.012817      0.000000
      5.28641      8.80882      3.52485         0.000000     -0.008302      0.006044
      7.04746      7.04746      3.52537        -0.004504     -0.004504      0.004504
      7.04798      8.80882      5.28641        -0.006044     -0.008302      0.000000
      8.80882      7.04798      5.28641        -0.008302     -0.006044      0.000000
      8.80771      8.80771      3.52849        -0.002780     -0.002780      0.001808
      0.00000      0.00000      7.03165         0.000000      0.000000      0.006662
      0.00000      1.76934      8.80348         0.000000     -0.000078      0.000078
      1.76934      0.00000      8.80348        -0.000078      0.000000      0.000078
      1.76512      1.76512      7.04433         0.002780      0.002780     -0.001808
      3.53685      0.00000      7.03597        -0.002007      0.000000      0.002007
      3.52849      1.76512      8.80771         0.001808      0.002780     -0.002780
      5.28641      0.00000      8.80681         0.000000      0.000000     -0.007526
      5.28641      1.76401      7.04798         0.000000      0.008302     -0.006044
      7.03597      0.00000      7.03597         0.002007      0.000000      0.002007
      7.04433      1.76512      8.80771        -0.001808      0.002780     -0.002780
      8.80348      0.00000      8.80348         0.000078      0.000000      0.000078
      8.80771      1.76512      7.04433        -0.002780      0.002780     -0.001808
      0.00000      3.53685      7.03597         0.000000     -0.002007      0.002007
      0.00000      5.28641      8.80681         0.000000      0.000000     -0.007526
      1.76512      3.52849      8.80771         0.002780      0.001808     -0.002780
      1.76401      5.28641      7.04798         0.008302      0.000000     -0.006044
      3.52537      3.52537      7.04746         0.004504      0.004504     -0.004504
      3.52485      5.28641      8.80882         0.006044      0.000000     -0.008302
      5.28641      3.52485      8.80882         0.000000      0.006044     -0.008302
      5.28641      5.28641      7.04842         0.000000      0.000000     -0.012817
      7.04746      3.52537      7.04746        -0.004504      0.004504     -0.004504
      7.04798      5.28641      8.80882        -0.006044      0.000000     -0.008302
      8.80771      3.52849      8.80771        -0.002780      0.001808     -0.002780
      8.80882      5.28641      7.04798        -0.008302      0.000000     -0.006044
      0.00000      7.03597      7.03597         0.000000      0.002007      0.002007
      0.00000      8.80348      8.80348         0.000000      0.000078      0.000078
      1.76512      7.04433      8.80771         0.002780     -0.001808     -0.002780
      1.76512      8.80771      7.04433         0.002780     -0.002780     -0.001808
      3.52537      7.04746      7.04746         0.004504     -0.004504     -0.004504
      3.52849      8.80771      8.80771         0.001808     -0.002780     -0.002780
      5.28641      7.04798      8.80882         0.000000     -0.006044     -0.008302
      5.28641      8.80882      7.04798         0.000000     -0.008302     -0.006044
      7.04746      7.04746      7.04746        -0.004504     -0.004504     -0.004504
      7.04433      8.80771      8.80771        -0.001808     -0.002780     -0.002780
      8.80771      7.04433      8.80771        -0.002780     -0.001808     -0.002780
      8.80771      8.80771      7.04433        -0.002780     -0.002780     -0.001808
 -----------------------------------------------------------------------------------
    total drift:                               -0.003849     -0.003849     -0.003849


--------------------------------------------------------------------------------------------------------



  FREE ENERGIE OF THE ION-ELECTRON SYSTEM (eV)
  ---------------------------------------------------
  free  energy   TOTEN  =      -608.32040899 eV

  energy  without entropy=     -608.30684321  energy(sigma->0) =     -608.31588706
 


--------------------------------------------------------------------------------------------------------


    POTLOK:  cpu time    0.44: real time    0.47


--------------------------------------------------------------------------------------------------------


 writing wavefunctions
     LOOP+:  cpu time 7465.99: real time 7510.19
    4ORBIT:  cpu time    0.00: real time    0.00
 


 total charge     
 
# of ion     s       p       d       tot
----------------------------------------
  1        0.663   0.632   4.739   6.034
  2        0.506   0.518   8.335   9.359
  3        0.506   0.517   8.336   9.358
  4        0.506   0.516   8.345   9.367
  5        0.491   0.491   8.313   9.294
  6        0.495   0.492   8.321   9.309
  7        0.497   0.494   8.313   9.304
  8        0.497   0.494   8.317   9.308
  9        0.491   0.491   8.313   9.294
 10        0.496   0.492   8.308   9.296
 11        0.506   0.518   8.337   9.361
 12        0.506   0.519   8.349   9.375
 13        0.491   0.490   8.316   9.297
 14        0.497   0.495   8.310   9.301
 15        0.495   0.492   8.321   9.309
 16        0.497   0.494   8.323   9.314
 17        0.498   0.491   8.323   9.311
 18        0.497   0.496   8.316   9.310
 19        0.497   0.496   8.319   9.313
 20        0.499   0.497   8.320   9.317
 21        0.498   0.492   8.331   9.321
 22        0.497   0.496   8.319   9.313
 23        0.496   0.492   8.319   9.307
 24        0.497   0.494   8.323   9.314
 25        0.491   0.490   8.316   9.297
 26        0.505   0.519   8.336   9.360
 27        0.496   0.492   8.306   9.295
 28        0.506   0.519   8.349   9.375
 29        0.498   0.492   8.331   9.321
 30        0.496   0.492   8.319   9.307
 31        0.497   0.496   8.323   9.316
 32        0.497   0.494   8.317   9.308
 33        0.498   0.491   8.323   9.311
 34        0.495   0.492   8.323   9.311
 35        0.495   0.492   8.318   9.306
 36        0.506   0.516   8.345   9.367
 37        0.492   0.489   8.321   9.302
 38        0.497   0.495   8.312   9.304
 39        0.497   0.494   8.320   9.311
 40        0.495   0.493   8.320   9.308
 41        0.498   0.490   8.317   9.306
 42        0.497   0.496   8.317   9.311
 43        0.499   0.497   8.311   9.308
 44        0.497   0.496   8.322   9.315
 45        0.498   0.491   8.323   9.312
 46        0.497   0.496   8.318   9.311
 47        0.497   0.494   8.320   9.311
 48        0.495   0.493   8.318   9.306
 49        0.498   0.491   8.311   9.300
 50        0.499   0.498   8.323   9.320
 51        0.498   0.496   8.315   9.308
 52        0.498   0.496   8.315   9.308
 53        0.497   0.494   8.319   9.310
 54        0.497   0.494   8.323   9.314
 55        0.497   0.494   8.321   9.311
 56        0.497   0.494   8.320   9.311
 57        0.497   0.494   8.322   9.313
 58        0.497   0.494   8.323   9.314
 59        0.498   0.496   8.314   9.308
 60        0.498   0.496   8.318   9.311
 61        0.498   0.492   8.322   9.312
 62        0.497   0.495   8.312   9.304
 63        0.498   0.496   8.314   9.308
 64        0.495   0.493   8.314   9.302
 65        0.497   0.494   8.321   9.312
 66        0.497   0.496   8.318   9.311
 67        0.497   0.494   8.321   9.311
 68        0.497   0.496   8.326   9.319
 69        0.497   0.494   8.321   9.312
 70        0.497   0.496   8.317   9.311
 71        0.498   0.496   8.314   9.308
 72        0.495   0.493   8.309   9.297
 73        0.492   0.489   8.321   9.302
 74        0.505   0.519   8.336   9.360
 75        0.506   0.518   8.337   9.361
 76        0.495   0.493   8.309   9.297
 77        0.498   0.491   8.323   9.312
 78        0.495   0.492   8.323   9.311
 79        0.497   0.494   8.313   9.304
 80        0.497   0.496   8.326   9.319
 81        0.498   0.490   8.317   9.306
 82        0.496   0.492   8.319   9.307
 83        0.506   0.517   8.336   9.358
 84        0.495   0.493   8.314   9.302
 85        0.498   0.492   8.322   9.312
 86        0.497   0.495   8.309   9.301
 87        0.495   0.492   8.318   9.306
 88        0.498   0.496   8.318   9.311
 89        0.497   0.494   8.321   9.313
 90        0.497   0.496   8.319   9.313
 91        0.497   0.496   8.323   9.316
 92        0.497   0.494   8.320   9.311
 93        0.497   0.494   8.321   9.312
 94        0.497   0.496   8.316   9.310
 95        0.496   0.492   8.306   9.295
 96        0.498   0.496   8.315   9.308
 97        0.498   0.491   8.311   9.300
 98        0.506   0.518   8.335   9.359
 99        0.496   0.492   8.319   9.307
100        0.495   0.493   8.317   9.305
101        0.497   0.494   8.322   9.313
102        0.496   0.492   8.308   9.296
103        0.497   0.496   8.319   9.313
104        0.497   0.496   8.322   9.315
105        0.497   0.494   8.319   9.310
106        0.495   0.492   8.321   9.309
107        0.495   0.492   8.321   9.309
108        0.495   0.493   8.320   9.308
------------------------------------------------
tot       53.907  53.751 895.0371002.694
 


 magnetization (x)
 
# of ion     s       p       d       tot
----------------------------------------
  1       -0.006  -0.018  -0.072  -0.096
  2       -0.004  -0.019   0.404   0.381
  3       -0.004  -0.019   0.400   0.377
  4       -0.004  -0.019   0.403   0.380
  5       -0.006  -0.020   0.662   0.636
  6       -0.005  -0.022   0.644   0.616
  7       -0.006  -0.024   0.671   0.642
  8       -0.005  -0.024   0.678   0.649
  9       -0.006  -0.020   0.662   0.636
 10       -0.005  -0.022   0.660   0.633
 11       -0.004  -0.018   0.410   0.388
 12       -0.003  -0.018   0.420   0.399
 13       -0.005  -0.020   0.659   0.634
 14       -0.006  -0.023   0.665   0.636
 15       -0.005  -0.022   0.649   0.621
 16       -0.005  -0.024   0.674   0.645
 17       -0.005  -0.024   0.655   0.626
 18       -0.006  -0.023   0.666   0.637
 19       -0.006  -0.023   0.664   0.635
 20       -0.005  -0.025   0.706   0.676
 21       -0.004  -0.023   0.658   0.630
 22       -0.006  -0.023   0.666   0.637
 23       -0.005  -0.022   0.653   0.626
 24       -0.005  -0.024   0.674   0.645
 25       -0.005  -0.020   0.659   0.634
 26       -0.004  -0.018   0.417   0.395
 27       -0.005  -0.022   0.666   0.639
 28       -0.003  -0.018   0.420   0.399
 29       -0.004  -0.023   0.658   0.630
 30       -0.005  -0.022   0.649   0.622
 31       -0.006  -0.023   0.661   0.632
 32       -0.005  -0.024   0.678   0.649
 33       -0.005  -0.024   0.655   0.626
 34       -0.005  -0.022   0.646   0.618
 35       -0.005  -0.022   0.653   0.626
 36       -0.004  -0.019   0.403   0.380
 37       -0.005  -0.021   0.650   0.624
 38       -0.006  -0.023   0.665   0.637
 39       -0.005  -0.024   0.672   0.643
 40       -0.006  -0.022   0.645   0.617
 41       -0.005  -0.024   0.653   0.624
 42       -0.006  -0.023   0.662   0.633
 43       -0.005  -0.025   0.699   0.669
 44       -0.006  -0.024   0.659   0.630
 45       -0.005  -0.024   0.655   0.626
 46       -0.006  -0.023   0.663   0.634
 47       -0.005  -0.024   0.672   0.643
 48       -0.006  -0.022   0.646   0.619
 49       -0.005  -0.024   0.662   0.634
 50       -0.005  -0.024   0.686   0.657
 51       -0.006  -0.023   0.670   0.641
 52       -0.006  -0.023   0.669   0.640
 53       -0.006  -0.023   0.660   0.631
 54       -0.006  -0.024   0.667   0.637
 55       -0.006  -0.024   0.666   0.636
 56       -0.006  -0.024   0.665   0.635
 57       -0.006  -0.023   0.658   0.629
 58       -0.006  -0.024   0.667   0.637
 59       -0.006  -0.023   0.670   0.641
 60       -0.006  -0.024   0.667   0.638
 61       -0.005  -0.023   0.658   0.631
 62       -0.006  -0.023   0.665   0.637
 63       -0.006  -0.023   0.670   0.641
 64       -0.006  -0.022   0.650   0.623
 65       -0.006  -0.023   0.658   0.629
 66       -0.006  -0.023   0.663   0.634
 67       -0.006  -0.024   0.666   0.636
 68       -0.006  -0.024   0.657   0.627
 69       -0.006  -0.023   0.658   0.629
 70       -0.006  -0.023   0.663   0.633
 71       -0.006  -0.023   0.670   0.641
 72       -0.006  -0.022   0.658   0.631
 73       -0.005  -0.021   0.650   0.624
 74       -0.004  -0.018   0.417   0.395
 75       -0.004  -0.018   0.410   0.388
 76       -0.006  -0.022   0.658   0.631
 77       -0.005  -0.024   0.655   0.626
 78       -0.005  -0.022   0.646   0.618
 79       -0.006  -0.024   0.671   0.642
 80       -0.006  -0.024   0.657   0.627
 81       -0.005  -0.024   0.653   0.624
 82       -0.005  -0.022   0.649   0.622
 83       -0.004  -0.019   0.400   0.377
 84       -0.006  -0.022   0.650   0.623
 85       -0.005  -0.023   0.658   0.631
 86       -0.006  -0.023   0.665   0.636
 87       -0.005  -0.022   0.653   0.626
 88       -0.006  -0.024   0.667   0.638
 89       -0.006  -0.023   0.658   0.629
 90       -0.006  -0.023   0.666   0.637
 91       -0.006  -0.023   0.661   0.632
 92       -0.006  -0.024   0.665   0.635
 93       -0.006  -0.023   0.658   0.629
 94       -0.006  -0.023   0.666   0.637
 95       -0.005  -0.022   0.666   0.639
 96       -0.006  -0.023   0.669   0.640
 97       -0.005  -0.024   0.662   0.634
 98       -0.004  -0.019   0.404   0.381
 99       -0.005  -0.022   0.653   0.626
100       -0.006  -0.022   0.646   0.619
101       -0.006  -0.023   0.658   0.629
102       -0.005  -0.022   0.660   0.633
103       -0.006  -0.023   0.664   0.635
104       -0.006  -0.024   0.659   0.630
105       -0.006  -0.023   0.660   0.631
106       -0.005  -0.022   0.644   0.616
107       -0.005  -0.022   0.649   0.621
108       -0.006  -0.022   0.645   0.617
------------------------------------------------
tot       -0.574  -2.423  67.655  64.659
 

 total amount of memory used by VASP on root node  1386642. kBytes
========================================================================

   base      :      30000. kBytes
   nonlr-proj:      25347. kBytes
   fftplans  :       6075. kBytes
   grid      :      15068. kBytes
   one-center:        559. kBytes
   wavefun   :    1309593. kBytes
 
  
  
 General timing and accounting informations for this job:
 ========================================================
  
                  Total CPU time used (sec):     8029.282
                            User time (sec):     7860.526
                          System time (sec):      168.756
                         Elapsed time (sec):     8079.741
  
                   Maximum memory used (kb):           0.
                   Average memory used (kb):           0.
  
                          Minor page faults:      1408284
                          Major page faults:           50
                 Voluntary context switches:       166151
