dos                                     
           1
    10.572827    0.000000    0.000000
     0.000000   10.572827    0.000000
     0.000000    0.000000   10.572827
   Re   Ni
   1 107
Direct configuration=     1
   0.00000000  0.00000000  0.00000000
   0.00000000  0.16734810  0.16734810
   0.16734810  0.00000000  0.16734810
   0.16734810  0.16734810  0.00000000
   0.33493222  0.00000000  0.00000000
   0.33373237  0.16694882  0.16694882
   0.50000000  0.00000000  0.16703369
   0.50000000  0.16703369  0.00000000
   0.66506780  0.00000000  0.00000000
   0.66626765  0.16694882  0.16694882
   0.83265186  0.00000000  0.16734810
   0.83265186  0.16734810  0.00000000
   0.00000000  0.33493222  0.00000000
   0.00000000  0.50000000  0.16703369
   0.16694882  0.33373237  0.16694882
   0.16703369  0.50000000  0.00000000
   0.33452301  0.33452301  0.00000000
   0.33338776  0.50000000  0.16684373
   0.50000000  0.33338776  0.16684373
   0.50000000  0.50000000  0.00000000
   0.66547701  0.33452301  0.00000000
   0.66661226  0.50000000  0.16684373
   0.83305115  0.33373237  0.16694882
   0.83296628  0.50000000  0.00000000
   0.00000000  0.66506780  0.00000000
   0.00000000  0.83265186  0.16734810
   0.16694882  0.66626765  0.16694882
   0.16734810  0.83265186  0.00000000
   0.33452301  0.66547701  0.00000000
   0.33373237  0.83305115  0.16694882
   0.50000000  0.66661226  0.16684373
   0.50000000  0.83296628  0.00000000
   0.66547701  0.66547701  0.00000000
   0.66626765  0.83305115  0.16694882
   0.83305115  0.66626765  0.16694882
   0.83265186  0.83265186  0.00000000
   0.00000000  0.00000000  0.33493222
   0.00000000  0.16703369  0.50000000
   0.16703369  0.00000000  0.50000000
   0.16694882  0.16694882  0.33373237
   0.33452301  0.00000000  0.33452301
   0.33338776  0.16684373  0.50000000
   0.50000000  0.00000000  0.50000000
   0.50000000  0.16684373  0.33338776
   0.66547701  0.00000000  0.33452301
   0.66661226  0.16684373  0.50000000
   0.83296628  0.00000000  0.50000000
   0.83305115  0.16694882  0.33373237
   0.00000000  0.33452301  0.33452301
   0.00000000  0.50000000  0.50000000
   0.16684373  0.33338776  0.50000000
   0.16684373  0.50000000  0.33338776
   0.33343659  0.33343659  0.33343659
   0.33334572  0.50000000  0.50000000
   0.50000000  0.33334572  0.50000000
   0.50000000  0.50000000  0.33334572
   0.66656343  0.33343659  0.33343659
   0.66665430  0.50000000  0.50000000
   0.83315624  0.33338776  0.50000000
   0.83315624  0.50000000  0.33338776
   0.00000000  0.66547701  0.33452301
   0.00000000  0.83296628  0.50000000
   0.16684373  0.66661226  0.50000000
   0.16694882  0.83305115  0.33373237
   0.33343659  0.66656343  0.33343659
   0.33338776  0.83315624  0.50000000
   0.50000000  0.66665430  0.50000000
   0.50000000  0.83315624  0.33338776
   0.66656343  0.66656343  0.33343659
   0.66661226  0.83315624  0.50000000
   0.83315624  0.66661226  0.50000000
   0.83305115  0.83305115  0.33373237
   0.00000000  0.00000000  0.66506780
   0.00000000  0.16734810  0.83265186
   0.16734810  0.00000000  0.83265186
   0.16694882  0.16694882  0.66626765
   0.33452301  0.00000000  0.66547701
   0.33373237  0.16694882  0.83305115
   0.50000000  0.00000000  0.83296628
   0.50000000  0.16684373  0.66661226
   0.66547701  0.00000000  0.66547701
   0.66626765  0.16694882  0.83305115
   0.83265186  0.00000000  0.83265186
   0.83305115  0.16694882  0.66626765
   0.00000000  0.33452301  0.66547701
   0.00000000  0.50000000  0.83296628
   0.16694882  0.33373237  0.83305115
   0.16684373  0.50000000  0.66661226
   0.33343659  0.33343659  0.66656343
   0.33338776  0.50000000  0.83315624
   0.50000000  0.33338776  0.83315624
   0.50000000  0.50000000  0.66665430
   0.66656343  0.33343659  0.66656343
   0.66661226  0.50000000  0.83315624
   0.83305115  0.33373237  0.83305115
   0.83315624  0.50000000  0.66661226
   0.00000000  0.66547701  0.66547701
   0.00000000  0.83265186  0.83265186
   0.16694882  0.66626765  0.83305115
   0.16694882  0.83305115  0.66626765
   0.33343659  0.66656343  0.66656343
   0.33373237  0.83305115  0.83305115
   0.50000000  0.66661226  0.83315624
   0.50000000  0.83315624  0.66661226
   0.66656343  0.66656343  0.66656343
   0.66626765  0.83305115  0.83305115
   0.83305115  0.66626765  0.83305115
   0.83305115  0.83305115  0.66626765
